LAMMPS (20 Mar 2014)
# H2O Bulk

#########################
### 1. Initialization ###
#########################

units		lj  # A,fmsec,g/mol,Kcal/mol,K,atm
boundary        m m m
atom_style      charge # molecular+charge
pair_style      grav/cut 50

##########################
### 2. Atom Definition ###
##########################

read_data     solar.data
  orthogonal box = (0 0 0) to (50 50 50)
  1 by 2 by 2 MPI processor grid
  reading atoms ...
  9 atoms

pair_coeff * * 50

group 1 type 1
1 atoms in group 1
group 2 type 2
1 atoms in group 2
group 3 type 3
1 atoms in group 3
group 4 type 4
1 atoms in group 4
group 5 type 5
1 atoms in group 5
group 6 type 6
1 atoms in group 6
group 7 type 7
1 atoms in group 7
group 8 type 8
1 atoms in group 8
group 9 type 9
1 atoms in group 9

group planets type > 1
8 atoms in group planets

velocity 1 set 0 0 0
velocity 2 set 0 0 0.005 #1
velocity 3 set 0 0 0.005 #0.7315646543
velocity 4 set 0 0 0.005 #0.622101525
velocity 5 set 0 0 0.005 #0.5013578442
velocity 6 set 0 0 0.005 #0.2715688323
velocity 7 set 0 0 0.005 #0.1880091916
velocity 8 set 0 0 0.005 #0.125339461
velocity 9 set 0 0 0.005 #0.1044495509


###################
### 3. Settings ###
###################


timestep  1
run_style verlet


thermo_style custom step temp pe ke etotal press atoms
thermo   50


fix 2 planets nve

#########################
### 4. Run Simulation ###
#########################

dump vmd all atom 50 solar.lammpstrj

run 200000
Memory usage per processor = 2.5275 Mbytes
Step Temp PotEng KinEng TotEng Press Atoms 
       0 8.3333333e-06 2.4836938e-05 1.1111111e-05 3.5948049e-05 -6.2734345e-11        9 
      50 8.4190308e-06 2.4951199e-05 1.1225374e-05 3.6176574e-05 -5.9992807e-11        9 
     100 8.7111726e-06 2.5340719e-05 1.1614897e-05 3.6955616e-05 -5.0647012e-11        9 
     150 9.2800886e-06 2.609927e-05 1.2373451e-05 3.8472722e-05 -3.2447081e-11        9 
     200 1.0229139e-05 2.7364665e-05 1.3638852e-05 4.1003517e-05 -2.0864322e-12        9 
     250 1.1743361e-05 2.9383616e-05 1.5657815e-05 4.5041431e-05 4.6354436e-11        9 
     300 1.4208592e-05 3.2670561e-05 1.894479e-05 5.161535e-05 1.2521887e-10        9 
     350 1.8586066e-05 3.8507098e-05 2.4781422e-05 6.328852e-05 2.652583e-10        9 
     400 2.8154206e-05 5.1264121e-05 3.7538941e-05 8.8803062e-05 5.7135884e-10        9 
     450 6.7570334e-05 0.00010380812 9.0093778e-05 0.0001939019 1.8325567e-09        9 
     500 6.9497829e-05 0.00010637712 9.2663771e-05 0.00019904089 1.8640528e-09        9 
     550 2.8388952e-05 5.1577093e-05 3.7851936e-05 8.9429029e-05 5.6360735e-10        9 
     600 1.8615493e-05 3.8546331e-05 2.4820657e-05 6.3366988e-05 2.5885709e-10        9 
     650 1.4147991e-05 3.2589759e-05 1.8863988e-05 5.1453747e-05 1.2007257e-10        9 
     700 1.1616181e-05 2.9214042e-05 1.5488241e-05 4.4702283e-05 4.1312026e-11        9 
     750 1.0038803e-05 2.7110884e-05 1.3385071e-05 4.0495955e-05 -8.0158554e-12        9 
     800 9.0235038e-06 2.5757157e-05 1.2031338e-05 3.7788496e-05 -3.9986275e-11        9 
     850 8.3854935e-06 2.490648e-05 1.1180658e-05 3.6087138e-05 -6.0435641e-11        9 
     900 8.0312979e-06 2.443422e-05 1.0708397e-05 3.5142618e-05 -7.1828976e-11        9 
     950 7.9156939e-06 2.4280082e-05 1.0554259e-05 3.4834341e-05 -7.5931074e-11        9 
    1000 8.0248018e-06 2.4425559e-05 1.0699736e-05 3.5125295e-05 -7.2604316e-11        9 
    1050 8.3714354e-06 2.4887736e-05 1.1161914e-05 3.604965e-05 -6.1515337e-11        9 
    1100 8.9994287e-06 2.5725057e-05 1.1999238e-05 3.7724296e-05 -4.1425509e-11        9 
    1150 9.9999898e-06 2.7059133e-05 1.333332e-05 4.0392453e-05 -9.4170225e-12        9 
    1200 1.155343e-05 2.9130375e-05 1.5404574e-05 4.4534949e-05 4.0276221e-11        9 
    1250 1.4041328e-05 3.2447542e-05 1.872177e-05 5.1169312e-05 1.1977248e-10        9 
    1300 1.8411268e-05 3.8274037e-05 2.4548357e-05 6.2822394e-05 2.5927071e-10        9 
    1350 2.7869807e-05 5.0884941e-05 3.7159743e-05 8.8044684e-05 5.6102578e-10        9 
    1400 6.5988652e-05    0.0001017 8.798487e-05 0.00018968487 1.7768306e-09        9 
    1450 7.1259599e-05 0.00010872523 9.5012799e-05 0.00020373803 1.908962e-09        9 
    1500 2.8653605e-05 5.1929944e-05 3.8204807e-05 9.0134751e-05 5.6918281e-10        9 
    1550 1.8743998e-05 3.8717669e-05 2.4991998e-05 6.3709667e-05 2.6151691e-10        9 
    1600 1.424555e-05 3.2719837e-05 1.8994067e-05 5.1713903e-05 1.2236707e-10        9 
    1650 1.170737e-05 2.9335627e-05 1.5609827e-05 4.4945454e-05 4.3852941e-11        9 
    1700 1.0131996e-05 2.7235142e-05 1.3509329e-05 4.074447e-05 -5.0521607e-12        9 
    1750 9.1220853e-06 2.5888599e-05 1.216278e-05 3.805138e-05 -3.6617026e-11        9 
    1800 8.4909047e-06 2.5047028e-05 1.1321206e-05 3.6368234e-05 -5.6524334e-11        9 
    1850 8.1440893e-06 2.4584609e-05 1.0858786e-05 3.5443395e-05 -6.7682853e-11        9 
    1900 8.0359343e-06 2.4440403e-05 1.0714579e-05 3.5154982e-05 -7.1422113e-11        9 
    1950 8.1522319e-06 2.4595466e-05 1.0869643e-05 3.5465108e-05 -6.7832603e-11        9 
    2000 8.5054818e-06 2.5066464e-05 1.1340642e-05 3.6407107e-05 -5.6605855e-11        9 
    2050 9.1390925e-06 2.5911276e-05 1.2185457e-05 3.8096732e-05 -3.6533027e-11        9 
    2100 1.0143526e-05 2.7250515e-05 1.3524702e-05 4.0775217e-05 -4.7672586e-12        9 
    2150 1.1697534e-05 2.9322514e-05 1.5596713e-05 4.4919227e-05 4.4319024e-11        9 
    2200 1.4178802e-05 3.2630842e-05 1.8905069e-05 5.153591e-05 1.2260001e-10        9 
    2250 1.8522571e-05 3.8422443e-05 2.4696762e-05 6.3119205e-05 2.5951226e-10        9 
    2300 2.7875606e-05 5.0892689e-05 3.7167475e-05 8.8060164e-05 5.5414069e-10        9 
    2350 6.4948341e-05 0.00010031352 8.6597788e-05 0.00018691131 1.7216838e-09        9 
    2400 7.3027245e-05 0.00011108127 9.736966e-05 0.00020845093 1.9409719e-09        9 
    2450 2.9088985e-05 5.2510433e-05 3.8785313e-05 9.1295746e-05 5.7532465e-10        9 
    2500 1.9055734e-05 3.9133313e-05 2.5407645e-05 6.4540958e-05 2.6768355e-10        9 
    2550 1.4525201e-05 3.3092703e-05 1.9366934e-05 5.2459637e-05 1.2937532e-10        9 
    2600 1.1976766e-05 2.9694821e-05 1.5969021e-05 4.5663842e-05 5.1528378e-11        9 
    2650 1.0398915e-05 2.7591033e-05 1.386522e-05 4.1456253e-05 3.2139686e-12        9 
    2700 9.3898844e-06 2.6245665e-05 1.2519846e-05 3.8765511e-05 -2.7875315e-11        9 
    2750 8.7611447e-06 2.5407348e-05 1.1681526e-05 3.7088874e-05 -4.7411678e-11        9 
    2800 8.4174473e-06 2.4949086e-05 1.1223263e-05 3.6172349e-05 -5.8277019e-11        9 
    2850 8.3125663e-06 2.4809245e-05 1.1083422e-05 3.5892667e-05 -6.1716554e-11        9 
    2900  8.43191e-06 2.496837e-05 1.1242547e-05 3.6210917e-05 -5.7881515e-11        9 
    2950 8.787608e-06 2.5442633e-05 1.1716811e-05 3.7159443e-05 -4.6567966e-11        9 
    3000 9.422595e-06 2.6289279e-05 1.256346e-05 3.8852739e-05 -2.673112e-11        9 
    3050 1.0426564e-05 2.7627899e-05 1.3902085e-05 4.1529984e-05 4.0361248e-12        9 
    3100 1.197674e-05 2.9694788e-05 1.5968987e-05 4.5663775e-05 5.1082726e-11        9 
    3150 1.4447126e-05 3.2988608e-05 1.9262834e-05 5.2251442e-05 1.2536792e-10        9 
    3200 1.8761491e-05 3.8741005e-05 2.5015321e-05 6.3756325e-05 2.5421042e-10        9 
    3250 2.8011717e-05 5.1074183e-05 3.7348956e-05 8.842314e-05 5.2930382e-10        9 
    3300 6.414138e-05 9.9238098e-05 8.552184e-05 0.00018475994 1.6011029e-09        9 
    3350 7.4856742e-05 0.00011351977 9.980899e-05 0.00021332876 1.8759854e-09        9 
    3400 2.9609362e-05 5.3204251e-05 3.9479149e-05  9.26834e-05 5.5352918e-10        9 
    3450 1.9452414e-05 3.9662218e-05 2.5936552e-05 6.5598771e-05 2.6101017e-10        9 
    3500 1.4884452e-05 3.3571705e-05 1.9845936e-05 5.3417641e-05 1.3050772e-10        9 
    3550 1.2318465e-05 3.015042e-05 1.642462e-05 4.657504e-05 5.7470679e-11        9 
    3600 1.0729676e-05 2.8032048e-05 1.4306235e-05 4.2338282e-05 1.2356378e-11        9 
    3650 9.7121531e-06 2.6675356e-05 1.2949537e-05 3.9624894e-05 -1.6534585e-11        9 
    3700 9.0756676e-06 2.5826712e-05 1.210089e-05 3.7927602e-05 -3.4644092e-11        9 
    3750 8.7241296e-06 2.5357996e-05 1.1632173e-05 3.6990169e-05 -4.4699525e-11        9 
    3800 8.6108132e-06 2.5206908e-05 1.1481084e-05 3.6687992e-05 -4.8008148e-11        9 
    3850 8.7207588e-06 2.5353502e-05 1.1627678e-05 3.698118e-05 -4.4895345e-11        9 
    3900 9.0657417e-06 2.5813478e-05 1.2087656e-05 3.7901133e-05 -3.4975189e-11        9 
    3950 9.6882444e-06 2.6643479e-05 1.2917659e-05 3.9561138e-05 -1.7219325e-11        9 
    4000 1.0677221e-05 2.7962109e-05 1.4236295e-05 4.2198404e-05 1.0849508e-11        9 
    4050 1.2208423e-05 3.0003699e-05 1.6277897e-05 4.6281597e-05 5.4144617e-11        9 
    4100 1.4652274e-05 3.3262139e-05 1.9536365e-05 5.2798504e-05 1.2307487e-10        9 
    4150 1.8921398e-05 3.8954216e-05 2.5228531e-05 6.4182747e-05 2.4337334e-10        9 
    4200 2.8054784e-05 5.1131619e-05 3.7406379e-05 8.8537997e-05 5.0052986e-10        9 
    4250 6.3277441e-05 9.8086659e-05 8.4369921e-05 0.00018245658 1.4922217e-09        9 
    4300 7.6583873e-05 0.00011582174 0.00010211183 0.00021793357 1.8380207e-09        9 
    4350 2.9976639e-05 5.3693937e-05 3.9968852e-05 9.366279e-05 5.3901898e-10        9 
    4400 1.967903e-05 3.9964371e-05 2.6238707e-05 6.6203078e-05 2.5655819e-10        9 
    4450 1.5056172e-05 3.3800664e-05 2.0074896e-05 5.387556e-05 1.3038299e-10        9 
    4500 1.2454902e-05 3.0332335e-05 1.6606535e-05 4.6938871e-05 5.935554e-11        9 
    4550 1.0837454e-05 2.8175752e-05 1.4449939e-05 4.2625691e-05 1.4927962e-11        9 
    4600 9.7939283e-06 2.678439e-05 1.3058571e-05 3.9842961e-05 -1.3698923e-11        9 
    4650 9.132559e-06 2.5902567e-05 1.2176745e-05 3.8079313e-05 -3.1589778e-11        9 
    4700 8.7565649e-06 2.5401243e-05 1.167542e-05 3.7076663e-05 -4.1638088e-11        9 
    4750 8.6188637e-06 2.5217642e-05 1.1491818e-05 3.670946e-05 -4.5190138e-11        9 
    4800 8.704265e-06 2.533151e-05 1.1605687e-05 3.6937197e-05 -4.2732987e-11        9 
    4850 9.0243227e-06 2.5758252e-05 1.203243e-05 3.7790683e-05 -3.3967791e-11        9 
    4900 9.6211935e-06 2.6554077e-05 1.2828258e-05 3.9382335e-05 -1.7953515e-11        9 
    4950 1.0583213e-05 2.7836764e-05 1.411095e-05 4.1947714e-05 7.6776167e-12        9 
    5000 1.2084769e-05 2.9838828e-05 1.6113025e-05 4.5951853e-05 4.7482037e-11        9 
    5050 1.4492826e-05 3.3049543e-05 1.9323769e-05 5.2373312e-05 1.1115979e-10        9 
    5100 1.8709059e-05 3.8671099e-05 2.4945412e-05 6.3616511e-05 2.2239645e-10        9 
    5150 2.772062e-05 5.068608e-05 3.6960827e-05 8.7646907e-05 4.6004053e-10        9 
    5200 6.2066146e-05 9.6472046e-05 8.2754861e-05 0.00017922691 1.3658345e-09        9 
    5250 7.7985428e-05 0.00011768955 0.00010398057 0.00022167012 1.7852645e-09        9 
    5300 2.9957627e-05 5.366857e-05 3.9943502e-05 9.3612072e-05 5.1852055e-10        9 
    5350 1.9518683e-05 3.9750572e-05 2.6024911e-05 6.5775484e-05 2.4333865e-10        9 
    5400 1.484312e-05 3.3516593e-05 1.9790826e-05 5.3307419e-05 1.2009367e-10        9 
    5450 1.2210506e-05 3.0006475e-05 1.6280675e-05 4.628715e-05 5.0650033e-11        9 
    5500 1.056997e-05 2.7819106e-05 1.4093293e-05 4.1912399e-05 7.2958915e-12        9 
    5550 9.5075786e-06 2.640259e-05 1.2676772e-05 3.9079362e-05 -2.0855652e-11        9 
    5600 8.8299644e-06 2.5499108e-05 1.1773286e-05 3.7272393e-05 -3.8887484e-11        9 
    5650 8.4395733e-06 2.4978588e-05 1.1252764e-05 3.6231352e-05 -4.9021191e-11        9 
    5700 8.288871e-06 2.4777652e-05 1.1051828e-05 3.582948e-05 -5.2843401e-11        9 
    5750 8.3623286e-06 2.4875595e-05 1.1149771e-05 3.6025366e-05 -5.0763335e-11        9 
    5800 8.6711591e-06 2.5287368e-05 1.1561545e-05 3.6848913e-05 -4.253614e-11        9 
    5850 9.2570637e-06 2.6068571e-05 1.2342752e-05 3.8411323e-05 -2.7117117e-11        9 
    5900 1.0207618e-05 2.7335971e-05 1.3610157e-05 4.0946127e-05 -2.2631112e-12        9 
    5950 1.1695693e-05 2.9320059e-05 1.5594257e-05 4.4914316e-05 3.6455479e-11        9 
    6000 1.4084614e-05 3.250526e-05 1.8779485e-05 5.1284746e-05 9.8446843e-11        9 
    6050 1.8264891e-05 3.8078878e-05 2.4353188e-05 6.2432066e-05 2.0662162e-10        9 
    6100 2.717181e-05 4.9954344e-05 3.622908e-05 8.6183424e-05 4.3685316e-10        9 
    6150 6.0676811e-05 9.4620025e-05 8.0902415e-05 0.00017552244 1.3024747e-09        9 
    6200 7.9302619e-05 0.00011944479 0.00010573682 0.00022518162 1.7820675e-09        9 
    6250 2.9783836e-05 5.343683e-05 3.9711781e-05 9.3148611e-05 5.027306e-10        9 
    6300 1.9218418e-05 3.9350216e-05 2.5624557e-05 6.4974774e-05 2.3001404e-10        9 
    6350 1.4507296e-05 3.3068827e-05 1.9343061e-05 5.2411888e-05 1.085198e-10        9 
    6400 1.1860496e-05 2.9539794e-05 1.5813995e-05 4.5353789e-05 4.0328484e-11        9 
    6450 1.0213684e-05 2.7344058e-05 1.3618245e-05 4.0962303e-05 -2.0767598e-12        9 
    6500 9.1487674e-06 2.5924175e-05 1.2198356e-05 3.8122532e-05 -2.9488281e-11        9 
    6550 8.4706958e-06 2.5020083e-05 1.1294261e-05 3.6314344e-05 -4.694447e-11        9 
    6600 8.081081e-06 2.4500598e-05 1.0774775e-05 3.5275373e-05 -5.6985792e-11        9 
    6650 7.931885e-06 2.430167e-05 1.0575847e-05 3.4877517e-05 -6.085209e-11        9 
    6700 8.0071959e-06 2.4402084e-05 1.0676261e-05 3.5078346e-05 -5.8947373e-11        9 
    6750 8.3178444e-06 2.4816281e-05 1.1090459e-05 3.5906741e-05 -5.0980655e-11        9 
    6800 8.9050327e-06 2.5599196e-05 1.1873377e-05 3.7472573e-05 -3.5866727e-11        9 
    6850 9.8555187e-06 2.6866506e-05 1.3140692e-05 4.0007197e-05 -1.1338742e-11        9 
    6900 1.134056e-05 2.884655e-05 1.5120747e-05 4.3967297e-05 2.7074464e-11        9 
    6950 1.3719629e-05 3.2018614e-05 1.8292839e-05 5.0311453e-05 8.8738922e-11        9 
    7000 1.7871473e-05 3.7554323e-05 2.3828631e-05 6.1382954e-05 1.9662475e-10        9 
    7050 2.6677216e-05 4.9294899e-05 3.5569622e-05 8.4864521e-05  4.25823e-10        9 
    7100 5.9330282e-05 9.2825073e-05 7.9107043e-05 0.00017193212 1.2768867e-09        9 
    7150 8.0885805e-05 0.00012155454 0.00010784774 0.00022940228 1.8417895e-09        9 
    7200 2.9710292e-05 5.3338751e-05 3.9613722e-05 9.2952473e-05 5.0750523e-10        9 
    7250 1.901568e-05 3.9079896e-05 2.535424e-05 6.4434136e-05 2.2844407e-10        9 
    7300 1.4272728e-05 3.275607e-05 1.9030304e-05 5.1786374e-05 1.0445178e-10        9 
    7350 1.1616222e-05 2.9214096e-05 1.5488297e-05 4.4702392e-05 3.476751e-11        9 
    7400 9.9674426e-06 2.7015736e-05 1.3289924e-05 4.0305659e-05 -8.6248232e-12        9 
    7450 8.9039111e-06  2.55977e-05 1.1871881e-05 3.7469582e-05 -3.6753469e-11        9 
    7500 8.2288342e-06 2.4697601e-05 1.0971779e-05 3.5669379e-05 -5.4723015e-11        9 
    7550 7.8429804e-06 2.418313e-05 1.0457307e-05 3.4640438e-05 -6.5125503e-11        9 
    7600 7.6978123e-06 2.3989573e-05 1.026375e-05 3.4253323e-05 -6.9208745e-11        9 
    7650 7.7770367e-06 2.4095206e-05 1.0369382e-05 3.4464588e-05 -6.7330346e-11        9 
    7700 8.0910905e-06 2.4513943e-05 1.0788121e-05 3.5302063e-05 -5.9135509e-11        9 
    7750 8.6806356e-06     2.53e-05 1.1574181e-05 3.6874181e-05 -4.3445404e-11        9 
    7800 9.6315112e-06 2.6567829e-05 1.2842015e-05 3.9409844e-05 -1.7893532e-11        9 
    7850 1.1113117e-05 2.8543293e-05 1.481749e-05 4.3360783e-05 2.2178349e-11        9 
    7900 1.3480447e-05 3.1699706e-05 1.797393e-05 4.9673635e-05 8.6632224e-11        9 
    7950 1.7598557e-05 3.7190437e-05 2.3464743e-05 6.065518e-05 1.9938237e-10        9 
    8000 2.6285946e-05 4.877322e-05 3.5047928e-05 8.3821148e-05 4.3811065e-10        9 
    8050 5.7972122e-05 9.1014656e-05 7.7296162e-05 0.00016831082 1.311151e-09        9 
    8100 8.3073535e-05 0.00012447002 0.00011076471 0.00023523474 2.0091947e-09        9 
    8150 2.9815519e-05 5.347903e-05 3.9754025e-05 9.3233055e-05 5.4088912e-10        9 
    8200 1.8963331e-05 3.9010094e-05 2.5284441e-05 6.4294536e-05 2.4113321e-10        9 
    8250 1.4180799e-05 3.2633496e-05 1.8907731e-05 5.1541228e-05 1.0845481e-10        9 
    8300 1.1511296e-05 2.9074193e-05 1.5348394e-05 4.4422587e-05 3.4093498e-11        9 
    8350 9.8589872e-06 2.6757348e-05 1.3145316e-05 3.9902664e-05 -9.8424268e-12        9 
    8400 8.7960431e-06 2.5340096e-05 1.1728057e-05 3.7068153e-05 -3.9907719e-11        9 
    8450 8.1234326e-06 2.4443285e-05 1.0831243e-05 3.5274528e-05 -5.9120979e-11        9 
    8500 7.7408968e-06 2.3933239e-05 1.0321196e-05 3.4254434e-05 -7.0271803e-11        9 
    8550 7.5992931e-06 2.3744434e-05 1.0132391e-05 3.3876825e-05 -7.4677648e-11        9 
    8600 7.6818784e-06 2.3854548e-05 1.0242504e-05 3.4097052e-05 -7.250091e-11        9 
    8650 7.9986384e-06 2.4276893e-05 1.0664851e-05 3.4941744e-05 -6.3732227e-11        9 
    8700 8.5896241e-06 2.5064871e-05 1.1452832e-05 3.6517703e-05 -4.689621e-11        9 
    8750 9.5396275e-06 2.6331537e-05 1.2719503e-05 3.9051041e-05 -1.9443286e-11        9 
    8800 1.1015909e-05 2.8299902e-05 1.4687879e-05 4.298778e-05 2.3422423e-11        9 
    8850 1.3368265e-05 3.143635e-05 1.7824354e-05 4.9260704e-05 9.1660409e-11        9 
    8900 1.7445836e-05 3.6873031e-05 2.3261115e-05 6.0134147e-05 2.0982046e-10        9 
    8950 2.5994516e-05 4.8270776e-05 3.4659355e-05 8.2930131e-05 4.5740723e-10        9 
    9000 5.6574028e-05 8.9037166e-05 7.5432037e-05 0.0001644692 1.3427905e-09        9 
    9050 8.6116136e-05 0.00012841103 0.00011482151 0.00024323254 2.1675975e-09        9 
    9100 3.0126675e-05 5.3779985e-05 4.0168901e-05 9.3948885e-05 5.6041266e-10        9 
    9150 1.9071102e-05 3.9039896e-05 2.5428136e-05 6.4468032e-05 2.4857438e-10        9 
    9200 1.4235862e-05 3.2593025e-05 1.8981149e-05 5.1574174e-05 1.1296527e-10        9 
    9250 1.1547504e-05 2.9008582e-05 1.5396672e-05 4.4405253e-05 3.7616415e-11        9 
    9300 9.8880326e-06 2.6795967e-05 1.3184043e-05 3.9980011e-05 -9.0402442e-12        9 
    9350 8.823055e-06 2.5376003e-05 1.1764073e-05 3.7140077e-05 -3.9185995e-11        9 
    9400 8.1510649e-06 2.448002e-05 1.0868086e-05 3.5348106e-05 -5.8387766e-11        9 
    9450 7.7705764e-06 2.3972703e-05 1.0360769e-05 3.4333472e-05 -6.9487459e-11        9 
    9500 7.6317578e-06 2.3787612e-05 1.0175677e-05 3.3963289e-05 -7.3624548e-11        9 
    9550 7.7173826e-06 2.3901778e-05 1.0289843e-05 3.4191622e-05 -7.1552646e-11        9 
    9600 8.0369846e-06 2.4327913e-05 1.0715979e-05 3.5043893e-05 -6.2442605e-11        9 
    9650 8.630045e-06 2.5118658e-05 1.1506727e-05 3.6625385e-05 -4.5366293e-11        9 
    9700 9.580437e-06 2.6385842e-05 1.2773916e-05 3.9159758e-05 -1.8049671e-11        9 
    9750 1.1053619e-05 2.8350074e-05 1.4738159e-05 4.3088233e-05 2.4242732e-11        9 
    9800 1.3395106e-05 3.147203e-05 1.7860141e-05 4.9332171e-05 9.1382446e-11        9 
    9850 1.7441338e-05 3.6768487e-05 2.3255117e-05 6.0023603e-05 2.0941033e-10        9 
    9900 2.5878942e-05 4.801825e-05 3.4505255e-05 8.2523505e-05 4.5098338e-10        9 
    9950 5.5573124e-05  8.76046e-05 7.4097499e-05 0.0001617021 1.3009043e-09        9 
   10000 8.9039726e-05 0.00013220895 0.00011871963 0.00025092858 2.2217555e-09        9 
   10050 3.053399e-05 5.4224507e-05 4.0711987e-05 9.4936494e-05 5.6707778e-10        9 
   10100 1.929631e-05 3.9240921e-05 2.5728413e-05 6.4969334e-05 2.5334422e-10        9 
   10150 1.4414646e-05 3.2732154e-05 1.9219528e-05 5.1951682e-05 1.1789357e-10        9 
   10200 1.171028e-05 2.9126001e-05 1.5613706e-05 4.4739707e-05 4.3271082e-11        9 
   10250 1.0045508e-05 2.6906319e-05 1.3394011e-05 4.030033e-05 -2.430798e-12        9 
   10300 8.9799777e-06 2.5485618e-05 1.1973304e-05 3.7458922e-05 -3.1566927e-11        9 
   10350 8.3098365e-06  2.45921e-05 1.1079782e-05 3.5671882e-05 -4.9842028e-11        9 
   10400 7.9324899e-06 2.4088973e-05 1.0576653e-05 3.4665626e-05 -6.0096123e-11        9 
   10450 7.7974869e-06 2.3908969e-05 1.0396649e-05 3.4305619e-05 -6.3732284e-11        9 
   10500 7.8871793e-06 2.4028559e-05 1.0516239e-05 3.4544798e-05 -6.1248589e-11        9 
   10550 8.2107239e-06 2.4459918e-05 1.0947632e-05 3.540755e-05 -5.2213326e-11        9 
   10600 8.8071412e-06 2.5255138e-05 1.1742855e-05 3.6997993e-05 -3.5840038e-11        9 
   10650 9.7595662e-06 2.6525033e-05 1.3012755e-05 3.9537788e-05 -1.0074063e-11        9 
   10700 1.1231996e-05 2.8488263e-05 1.4975995e-05 4.3464258e-05 2.9357938e-11        9 
   10750 1.3566448e-05 3.1600839e-05 1.8088597e-05 4.9689437e-05 9.1249411e-11        9 
   10800 1.7588443e-05 3.6963422e-05 2.3451257e-05 6.0414679e-05 1.9722738e-10        9 
   10850 2.5937075e-05 4.8094565e-05 3.4582766e-05 8.2677331e-05 4.1595126e-10        9 
   10900 5.4928559e-05 8.6744292e-05 7.3238079e-05 0.00015998237 1.1730349e-09        9 
   10950 9.1763873e-05 0.0001358386 0.00012235183 0.00025819043 2.1073073e-09        9 
   11000 3.1032789e-05 5.4888428e-05 4.1377051e-05 9.626548e-05 5.2818849e-10        9 
   11050 1.9641048e-05 3.9700164e-05 2.6188064e-05 6.5888228e-05 2.3838142e-10        9 
   11100 1.4721168e-05 3.3140443e-05 1.9628223e-05 5.2768667e-05 1.1447289e-10        9 
   11150 1.2004228e-05 2.9517888e-05 1.6005638e-05 4.5523526e-05 4.6527651e-11        9 
   11200 1.0335791e-05 2.7293319e-05 1.3781055e-05 4.1074374e-05 5.005806e-12        9 
   11250 9.270449e-06 2.587287e-05 1.2360599e-05 3.8233468e-05 -2.1411292e-11        9 
   11300 8.602349e-06 2.4982073e-05 1.1469799e-05 3.6451871e-05 -3.7933707e-11        9 
   11350 8.2279408e-06 2.4476226e-05 1.0970588e-05 3.5446814e-05 -4.7040512e-11        9 
   11400 8.0962308e-06 2.4300613e-05 1.0794974e-05 3.5095588e-05 -5.0265265e-11        9 
   11450 8.1891614e-06 2.4424521e-05 1.0918882e-05 3.5343403e-05 -4.7941197e-11        9 
   11500 8.5155245e-06 2.4859642e-05 1.1354033e-05 3.6213675e-05 -3.979475e-11        9 
   11550 9.1138899e-06 2.565746e-05 1.2151853e-05 3.7809314e-05 -2.4917907e-11        9 
   11600 1.0066684e-05 2.6922447e-05 1.3422245e-05 4.0344692e-05 -1.4262033e-12        9 
   11650 1.1536527e-05 2.8882227e-05 1.5382036e-05 4.4264263e-05 3.4257056e-11        9 
   11700 1.3862164e-05 3.1983051e-05 1.8482886e-05 5.0465937e-05 9.0335225e-11        9 
   11750 1.7859324e-05 3.7312527e-05 2.3812432e-05 6.1124959e-05 1.8592903e-10        9 
   11800 2.6123424e-05 4.8330969e-05 3.4831233e-05 8.3162202e-05 3.827491e-10        9 
   11850 5.4481276e-05 8.6136114e-05 7.2641701e-05 0.00015877781 1.0561813e-09        9 
   11900 9.4540382e-05 0.00013952715 0.00012605384  0.000265581 1.9790949e-09        9 
   11950 3.1620259e-05 5.5659628e-05 4.2160345e-05 9.7819973e-05 4.9509941e-10        9 
   12000 2.0079193e-05 4.0272285e-05 2.6772258e-05 6.7044543e-05 2.2764566e-10        9 
   12050 1.5118969e-05 3.3658774e-05 2.0158625e-05  5.38174e-05 1.1370358e-10        9 
   12100 1.2385076e-05 3.001362e-05 1.6513435e-05 4.6527055e-05 5.1307757e-11        9 
   12150 1.0707352e-05 2.7776668e-05 1.427647e-05 4.2053138e-05 1.3193801e-11        9 
   12200 9.6356477e-06 2.6347736e-05 1.284753e-05 3.9195266e-05 -1.1074904e-11        9 
   12250 8.9622233e-06 2.544984e-05 1.1949631e-05 3.7399471e-05 -2.6285427e-11        9 
   12300 8.5826057e-06 2.4943684e-05 1.1443474e-05 3.6387159e-05 -3.4839167e-11        9 
   12350 8.4452542e-06 2.476055e-05 1.1260339e-05 3.6020889e-05 -3.7918369e-11        9 
   12400 8.5317386e-06 2.4875862e-05 1.1375651e-05 3.6251513e-05 -3.594817e-11        9 
   12450 8.8504871e-06 2.5300857e-05 1.180065e-05 3.7101507e-05 -2.8730516e-11        9 
   12500 9.4396225e-06 2.6086368e-05 1.2586163e-05 3.8672532e-05 -1.5354062e-11        9 
   12550 1.0380863e-05 2.7341349e-05 1.384115e-05 4.1182499e-05 5.7058809e-12        9 
   12600 1.1835464e-05 2.9280806e-05 1.5780618e-05 4.5061425e-05 3.7982968e-11        9 
   12650   1.4139e-05 3.2352162e-05 1.8851999e-05 5.1204162e-05 8.8688525e-11        9 
   12700 1.809768e-05 3.7630327e-05 2.4130239e-05 6.1760566e-05 1.7542734e-10        9 
   12750 2.6264848e-05 4.8519535e-05 3.5019797e-05 8.3539332e-05 3.5354443e-10        9 
   12800 5.4006888e-05 8.5503849e-05 7.2009185e-05 0.00015751303 9.5700396e-10        9 
   12850 9.7303384e-05 0.00014320977 0.00012973785 0.00027294762 1.8784989e-09        9 
   12900 3.2107263e-05 5.6308939e-05 4.2809684e-05 9.9118623e-05 4.6493952e-10        9 
   12950 2.0401266e-05 4.0701709e-05 2.7201688e-05 6.7903397e-05 2.1582606e-10        9 
   13000 1.5384101e-05 3.4012279e-05 2.0512134e-05 5.4524413e-05 1.0998206e-10        9 
   13050 1.2615951e-05 3.0321449e-05 1.6821267e-05 4.7142716e-05 5.194736e-11        9 
   13100 1.0911233e-05 2.8048506e-05 1.4548311e-05 4.2596817e-05 1.6364271e-11        9 
   13150 9.8152501e-06 2.6587202e-05   1.3087e-05 3.9674202e-05 -6.4409513e-12        9 
   13200 9.1185285e-06 2.5658243e-05 1.2158038e-05 3.7816281e-05 -2.0901518e-11        9 
   13250 8.715817e-06 2.5121296e-05 1.1621089e-05 3.6742385e-05 -2.9109011e-11        9 
   13300 8.555174e-06 2.4907106e-05 1.1406899e-05 3.6314005e-05 -3.2028019e-11        9 
   13350 8.6179159e-06 2.4990762e-05 1.1490555e-05 3.6481316e-05 -3.0498985e-11        9 
   13400 8.9122433e-06 2.5383197e-05 1.1882991e-05 3.7266188e-05 -2.4346928e-11        9 
   13450 9.4759674e-06 2.6134827e-05 1.2634623e-05 3.876945e-05 -1.2877751e-11        9 
   13500 1.0390238e-05 2.7353849e-05 1.385365e-05 4.1207499e-05 5.2206393e-12        9 
   13550 1.1815089e-05 2.925364e-05 1.5753452e-05 4.5007092e-05 3.2988515e-11        9 
   13600 1.4083056e-05 3.2277572e-05 1.8777408e-05 5.105498e-05 7.652815e-11        9 
   13650 1.7991049e-05 3.7488154e-05 2.3988065e-05 6.1476218e-05 1.5092961e-10        9 
   13700 2.6051225e-05 4.8234714e-05 3.4734966e-05 8.296968e-05 3.031021e-10        9 
   13750 5.318813e-05 8.441241e-05 7.0917506e-05 0.00015532992 8.1309122e-10        9 
   13800 9.9811785e-05 0.00014655292 0.00013308238 0.0002796353 1.6804707e-09        9 
   13850 3.2214543e-05 5.6451954e-05 4.2952723e-05 9.9404677e-05 4.1064955e-10        9 
   13900 2.0336985e-05 4.0615997e-05 2.711598e-05 6.7731977e-05 1.8842516e-10        9 
   13950 1.5259426e-05 3.3846045e-05 2.0345901e-05 5.4191946e-05 9.403392e-11        9 
   14000 1.2455324e-05 3.0107279e-05 1.6607099e-05 4.6714378e-05 4.2380851e-11        9 
   14050 1.0723601e-05 2.779833e-05 1.4298135e-05 4.2096465e-05 1.0816854e-11        9 
   14100 9.6050089e-06 2.630688e-05 1.2806679e-05 3.9113559e-05 -9.3331142e-12        9 
   14150 8.8883296e-06 2.5351311e-05 1.1851106e-05 3.7202417e-05 -2.2064888e-11        9 
   14200 8.4675046e-06 2.4790213e-05 1.1290006e-05 3.6080219e-05 -2.9394964e-11        9 
   14250 8.2901434e-06 2.4553732e-05 1.1053525e-05 3.5607256e-05 -3.2346078e-11        9 
   14300 8.3372446e-06 2.4616533e-05 1.1116326e-05 3.5732859e-05 -3.133312e-11        9 
   14350 8.6167001e-06 2.4989139e-05 1.1488933e-05 3.6478073e-05 -2.6286752e-11        9 
   14400 9.1659127e-06 2.572142e-05 1.2221217e-05 3.7942637e-05 -1.6581876e-11        9 
   14450 1.0065351e-05 2.6920667e-05 1.3420468e-05 4.0341135e-05 -1.0289465e-12        9 
   14500 1.1473699e-05 2.8798453e-05 1.5298265e-05 4.4096719e-05 2.3077001e-11        9 
   14550  1.37203e-05 3.1793896e-05 1.8293733e-05 5.0087629e-05 6.1169556e-11        9 
   14600 1.7592587e-05 3.6956873e-05 2.3456783e-05 6.0413656e-05 1.2647666e-10        9 
   14650 2.5561537e-05 4.7581806e-05 3.4082049e-05 8.1663855e-05 2.6019823e-10        9 
   14700 5.2120743e-05 8.2989456e-05 6.9494324e-05 0.00015248378 7.0465704e-10        9 
   14750 0.00010225077 0.00014980351 0.00013633436 0.00028613787 1.5391439e-09        9 
   14800 3.2103324e-05 5.6303636e-05 4.2804431e-05 9.9108067e-05 3.6552506e-10        9 
   14850 2.0068515e-05 4.0258034e-05 2.6758019e-05 6.7016053e-05 1.6467894e-10        9 
   14900 1.4948111e-05 3.3430958e-05 1.9930815e-05 5.3361773e-05 7.9548946e-11        9 
   14950 1.2125979e-05 2.9668153e-05 1.6167972e-05 4.5836125e-05 3.2876072e-11        9 
   15000 1.038514e-05 2.7347048e-05 1.3846853e-05 4.1193901e-05 4.2576115e-12        9 
   15050 9.2616345e-06 2.5849048e-05 1.2348846e-05 3.8197894e-05 -1.4085849e-11        9 
   15100 8.5423901e-06 2.4890058e-05 1.1389853e-05 3.6279912e-05 -2.573955e-11        9 
   15150 8.1204475e-06 2.432747e-05 1.0827263e-05 3.5154733e-05 -3.2492373e-11        9 
   15200 7.9428846e-06 2.409072e-05 1.0590513e-05 3.4681233e-05 -3.5252158e-11        9 
   15250 7.9903071e-06 2.415395e-05 1.0653743e-05 3.4807693e-05 -3.437346e-11        9 
   15300 8.2702281e-06 2.4527177e-05 1.1026971e-05 3.5554147e-05 -2.9771198e-11        9 
   15350 8.8195731e-06 2.5259634e-05 1.1759431e-05 3.7019065e-05 -2.0894999e-11        9 
   15400 9.7180534e-06 2.6457603e-05 1.2957404e-05 3.9415007e-05 -6.500401e-12        9 
   15450 1.1122894e-05 2.8330714e-05 1.4830526e-05 4.3161239e-05 1.5888469e-11        9 
   15500 1.3360055e-05 3.1313571e-05 1.7813407e-05 4.9126978e-05 5.136695e-11        9 
   15550 1.7207019e-05 3.6442784e-05 2.2942692e-05 5.9385476e-05 1.1220534e-10        9 
   15600 2.5091935e-05 4.6955679e-05 3.3455913e-05 8.0411593e-05 2.365918e-10        9 
   15650 5.1070397e-05 8.1589221e-05 6.8093863e-05 0.00014968308 6.4587349e-10        9 
   15700 0.00010505756 0.00015354448 0.00014007675 0.00029362123 1.4945704e-09        9 
   15750 3.206426e-05 5.6251524e-05 4.2752347e-05 9.9003871e-05 3.4462724e-10        9 
   15800 1.9870427e-05 3.9993914e-05 2.6493903e-05 6.6487817e-05 1.5278455e-10        9 
   15850 1.4712992e-05 3.3117464e-05 1.9617322e-05 5.2734787e-05 7.1792099e-11        9 
   15900 1.1879348e-05 2.9339311e-05 1.583913e-05 4.5178441e-05 2.7403985e-11        9 
   15950 1.0135631e-05 2.7014369e-05 1.3514174e-05 4.0528543e-05 1.635389e-13        9 
   16000 9.0129441e-06 2.551746e-05 1.2017259e-05 3.7534719e-05 -1.731832e-11        9 
   16050 8.2963043e-06 2.4561944e-05 1.1061739e-05 3.5623683e-05 -2.8439695e-11        9 
   16100 7.8778464e-06 2.4004002e-05 1.0503795e-05 3.4507797e-05 -3.4895722e-11        9 
   16150 7.7041243e-06 2.3772373e-05 1.0272166e-05 3.4044539e-05 -3.7533537e-11        9 
   16200 7.7553564e-06 2.3840682e-05 1.0340475e-05 3.4181157e-05 -3.6683108e-11        9 
   16250 8.0386717e-06 2.4218435e-05 1.0718229e-05 3.4936664e-05 -3.2273865e-11        9 
   16300 8.5904877e-06 2.4954187e-05 1.1453984e-05 3.6408171e-05 -2.3708322e-11        9 
   16350 9.489675e-06 2.6153099e-05  1.26529e-05 3.8805999e-05 -9.8027194e-12        9 
   16400 1.0891799e-05 2.8022588e-05 1.4522399e-05 4.2544987e-05 1.181326e-11        9 
   16450 1.3118919e-05 3.0992056e-05 1.7491892e-05 4.8483948e-05 4.6089602e-11        9 
   16500 1.6937012e-05 3.6082777e-05 2.2582683e-05 5.866546e-05 1.0475013e-10        9 
   16550 2.4724991e-05 4.6466432e-05 3.2966655e-05 7.9433087e-05 2.2430267e-10        9 
   16600 5.0045604e-05 8.0223079e-05 6.6727472e-05 0.00014695055 6.128047e-10        9 
   16650 0.00010877477 0.00015849927 0.00014503303 0.0003035323 1.5133065e-09        9 
   16700 3.2204721e-05 5.643877e-05 4.2939628e-05 9.9378397e-05  3.38355e-10        9 
   16750 1.9819551e-05 3.9926075e-05 2.6426068e-05 6.6352143e-05 1.4844192e-10        9 
   16800  1.46174e-05 3.2990008e-05 1.9489867e-05 5.2479875e-05 6.8733495e-11        9 
   16850 1.1769351e-05 2.9192648e-05 1.5692468e-05 4.4885117e-05 2.5139494e-11        9 
   16900 1.0021394e-05 2.6862054e-05 1.3361859e-05 4.0223913e-05 -1.5853515e-12        9 
   16950 8.8987486e-06  2.53652e-05 1.1864998e-05 3.7230198e-05 -1.8726416e-11        9 
   17000 8.1841434e-06 2.4412396e-05 1.0912191e-05 3.5324587e-05 -2.9621504e-11        9 
   17050 7.7686263e-06 2.3858375e-05 1.0358168e-05 3.4216543e-05 -3.5939751e-11        9 
   17100 7.5981265e-06 2.3631043e-05 1.0130835e-05 3.3761878e-05 -3.8513171e-11        9 
   17150 7.6524122e-06 2.3703423e-05 1.0203216e-05 3.390664e-05 -3.7672793e-11        9 
   17200 7.9381752e-06 2.408444e-05 1.0584234e-05 3.4668673e-05 -3.329734e-11        9 
   17250 8.4912564e-06 2.4821879e-05 1.1321675e-05 3.6143554e-05 -2.4862822e-11        9 
   17300 9.3895579e-06 2.6019609e-05 1.2519411e-05 3.853902e-05 -1.1188086e-11        9 
   17350 1.0786703e-05 2.788246e-05 1.4382271e-05 4.2264731e-05 1.0056333e-11        9 
   17400 1.3000142e-05 3.0833688e-05 1.7333523e-05 4.8167211e-05 4.367614e-11        9 
   17450 1.6782223e-05 3.5876394e-05 2.2376298e-05 5.8252692e-05 1.0107424e-10        9 
   17500 2.4453646e-05 4.6104651e-05 3.2604861e-05 7.8709512e-05 2.1681098e-10        9 
   17550 4.9003061e-05 7.8833311e-05 6.5337415e-05 0.00014417073 5.8631813e-10        9 
   17600 0.00011391401 0.00016535058 0.00015188534 0.00031723592 1.5569867e-09        9 
   17650 3.2562661e-05 5.6915978e-05 4.3416881e-05 0.00010033286 3.3084932e-10        9 
   17700 1.9926582e-05 4.0068778e-05 2.6568775e-05 6.6637553e-05 1.4366672e-10        9 
   17750 1.4663852e-05 3.3051942e-05 1.9551802e-05 5.2603745e-05 6.6285035e-11        9 
   17800 1.1794394e-05 2.9226038e-05 1.5725859e-05 4.4951896e-05 2.4320805e-11        9 
   17850 1.0038249e-05 2.6884527e-05 1.3384332e-05 4.0268859e-05 -1.2634435e-12        9 
   17900 8.9131259e-06 2.5384369e-05 1.1884168e-05 3.7268537e-05 -1.760547e-11        9 
   17950 8.1988822e-06 2.4432048e-05 1.0931843e-05 3.5363891e-05 -2.7943122e-11        9 
   18000 7.7852373e-06 2.3880523e-05 1.0380316e-05 3.4260839e-05 -3.3929785e-11        9 
   18050 7.6173885e-06 2.3656725e-05 1.0156518e-05 3.3813243e-05 -3.6336086e-11        9 
   18100 7.6746022e-06 2.373301e-05 1.0232803e-05 3.3965813e-05 -3.5484131e-11        9 
   18150 7.9631162e-06 2.4117694e-05 1.0617488e-05 3.4735182e-05 -3.128988e-11        9 
   18200 8.5182169e-06 2.4857826e-05 1.1357623e-05 3.6215449e-05 -2.3190865e-11        9 
   18250 9.4169358e-06 2.6056113e-05 1.2555914e-05 3.8612028e-05 -1.0192565e-11        9 
   18300 1.0811225e-05 2.7915156e-05 1.4414967e-05 4.2330123e-05 9.8404581e-12        9 
   18350 1.3014659e-05 3.0853044e-05 1.7352878e-05 4.8205922e-05 4.1290166e-11        9 
   18400 1.6768219e-05 3.5857724e-05 2.2357626e-05 5.821535e-05 9.4643065e-11        9 
   18450 2.4344284e-05 4.5958846e-05 3.2459046e-05 7.8417892e-05 2.0192189e-10        9 
   18500 4.8261115e-05 7.7844282e-05 6.4348153e-05 0.00014219244 5.3983373e-10        9 
   18550 0.00011886324 0.00017195006 0.00015848432 0.00033043438 1.5283776e-09        9 
   18600 3.3015096e-05 5.7519183e-05 4.4020127e-05 0.00010153931 3.1704774e-10        9 
   18650 2.0148185e-05 4.0364245e-05 2.6864247e-05 6.7228492e-05 1.3806411e-10        9 
   18700 1.4830332e-05 3.3273915e-05 1.9773776e-05 5.3047691e-05 6.4590119e-11        9 
   18750 1.1941809e-05 2.9422591e-05 1.5922412e-05 4.5345004e-05 2.4882127e-11        9 
   18800 1.0178802e-05 2.707193e-05 1.3571736e-05 4.0643665e-05 7.3374296e-13        9 
   18850 9.0521087e-06 2.556968e-05 1.2069478e-05 3.7639158e-05 -1.4652873e-11        9 
   18900 8.3389438e-06 2.4618797e-05 1.1118592e-05 3.5737388e-05 -2.4370027e-11        9 
   18950 7.9278031e-06 2.4070611e-05 1.0570404e-05 3.4641015e-05 -2.9955015e-11        9 
   19000 7.7632169e-06 2.3851163e-05 1.0350956e-05 3.4202119e-05 -3.2175617e-11        9 
   19050 7.8240108e-06 2.3932221e-05 1.0432014e-05 3.4364236e-05 -3.1329261e-11        9 
   19100 8.1160435e-06 2.4321597e-05 1.0821391e-05 3.5142989e-05 -2.7346261e-11        9 
   19150 8.6741552e-06 2.5065744e-05 1.156554e-05 3.6631284e-05 -1.9723252e-11        9 
   19200 9.5746811e-06 2.626644e-05 1.2766241e-05 3.9032682e-05 -7.4519084e-12        9 
   19250 1.0968227e-05 2.8124491e-05 1.4624302e-05 4.2748794e-05 1.1375992e-11        9 
   19300 1.316522e-05 3.1053792e-05 1.7553626e-05 4.8607419e-05 4.0910565e-11        9 
   19350 1.6897425e-05    3.603e-05  2.25299e-05  5.85599e-05 9.0800148e-11        9 
   19400 2.4398303e-05 4.6030881e-05 3.2531071e-05 7.8561952e-05 1.907754e-10        9 
   19450 4.7815096e-05 7.724977e-05 6.3753461e-05 0.00014100323 5.0222928e-10        9 
   19500 0.00012335087 0.00017793521 0.00016446783 0.00034240304 1.4975291e-09        9 
   19550 3.3542661e-05 5.8222568e-05 4.4723548e-05 0.00010294612 3.0558856e-10        9 
   19600 2.0481221e-05 4.080829e-05 2.7308295e-05 6.8116585e-05 1.3443447e-10        9 
   19650 1.5118505e-05 3.3658145e-05 2.0158007e-05 5.3816152e-05 6.4606444e-11        9 
   19700 1.2215467e-05 2.9787468e-05 1.6287289e-05 4.6074758e-05 2.6985869e-11        9 
   19750 1.0448117e-05 2.7431017e-05 1.3930823e-05 4.136184e-05 4.1631877e-12        9 
   19800 9.3214263e-06 2.592877e-05 1.2428568e-05 3.8357338e-05 -1.0345879e-11        9 
   19850 8.6103664e-06 2.4980693e-05 1.1480489e-05 3.6461182e-05 -1.9481921e-11        9 
   19900 8.2023835e-06 2.4436718e-05 1.0936511e-05 3.5373229e-05 -2.4709502e-11        9 
   19950 8.0414208e-06 2.4222102e-05 1.0721894e-05 3.4943996e-05 -2.6760487e-11        9 
   20000 8.105901e-06 2.4308075e-05 1.0807868e-05 3.5115943e-05 -2.5918456e-11        9 
   20050 8.4013232e-06 2.470197e-05 1.1201764e-05 3.5903734e-05 -2.2116541e-11        9 
   20100 8.9620985e-06 2.5449668e-05 1.1949465e-05 3.7399133e-05 -1.4895557e-11        9 
   20150 9.8638992e-06 2.6652065e-05 1.3151866e-05 3.980393e-05 -3.3372297e-12        9 
   20200 1.1256071e-05 2.8508283e-05 1.5008094e-05 4.3516377e-05 1.4399672e-11        9 
   20250 1.3446136e-05 3.1428349e-05 1.7928182e-05 4.935653e-05 4.2138049e-11        9 
   20300 1.7157426e-05 3.6376669e-05 2.2876568e-05 5.9253237e-05 8.8982977e-11        9 
   20350 2.4588066e-05 4.6283905e-05 3.2784088e-05 7.9067993e-05 1.8246176e-10        9 
   20400 4.7555101e-05 7.6903267e-05 6.3406801e-05 0.00014031007 4.7082853e-10        9 
   20450 0.00012785069 0.00018393778 0.00017046759 0.00035440537 1.4732571e-09        9 
   20500 3.4166582e-05 5.9054428e-05 4.5555442e-05 0.00010460987 2.9650084e-10        9 
   20550 2.0919958e-05 4.1393268e-05 2.7893277e-05 6.9286545e-05 1.3242674e-10        9 
   20600 1.5512593e-05 3.4183595e-05 2.0683458e-05 5.4867053e-05 6.5873383e-11        9 
   20650 1.2592659e-05 3.0290391e-05 1.6790213e-05 4.7080604e-05 3.0105381e-11        9 
   20700 1.0817311e-05 2.7923276e-05 1.4423082e-05 4.2346357e-05 8.4322264e-12        9 
   20750 9.6860817e-06 2.6414977e-05 1.2914776e-05 3.9329752e-05 -5.3415314e-12        9 
   20800 8.9718402e-06 2.5462659e-05 1.1962454e-05 3.7425112e-05 -1.4018724e-11        9 
   20850 8.5610328e-06 2.4914917e-05 1.141471e-05 3.6329627e-05 -1.8997787e-11        9 
   20900 8.3970293e-06 2.4696246e-05 1.1196039e-05 3.5892285e-05 -2.0971316e-11        9 
   20950 8.4578474e-06 2.4777337e-05 1.127713e-05 3.6054467e-05 -2.0223782e-11        9 
   21000 8.7486183e-06 2.516503e-05 1.1664824e-05 3.6829855e-05 -1.6689957e-11        9 
   21050 9.3033148e-06 2.5904623e-05 1.240442e-05 3.8309043e-05 -9.9544104e-12        9 
   21100 1.0196942e-05 2.7096121e-05 1.3595922e-05 4.0692043e-05 8.6635303e-13        9 
   21150 1.1577593e-05 2.8936981e-05 1.5436791e-05 4.4373772e-05 1.7475809e-11        9 
   21200 1.3749946e-05 3.1833429e-05 1.8333262e-05 5.016669e-05 4.3507977e-11        9 
   21250 1.7429133e-05 3.6738947e-05 2.3238844e-05 5.9977791e-05 8.7376507e-11        9 
   21300 2.4779309e-05 4.6538903e-05 3.3039079e-05 7.9577982e-05 1.7480387e-10        9 
   21350 4.7306515e-05 7.6571965e-05 6.3075354e-05 0.00013964732 4.4227488e-10        9 
   21400 0.00013242826 0.00019004551 0.00017657101 0.00036661652 1.4436835e-09        9 
   21450 3.4741933e-05 5.9821529e-05 4.6322578e-05 0.00010614411 2.8719872e-10        9 
   21500 2.1296989e-05 4.1895973e-05 2.8395985e-05 7.0291959e-05 1.2971135e-10        9 
   21550 1.5830273e-05 3.4607167e-05 2.110703e-05 5.5714197e-05 6.6073457e-11        9 
   21600 1.2877643e-05 3.0670369e-05 1.717019e-05 4.7840559e-05 3.179338e-11        9 
   21650 1.1077762e-05 2.8270544e-05 1.477035e-05 4.3040894e-05 1.0987502e-11        9 
   21700 9.9249186e-06 2.6733426e-05 1.3233225e-05 3.9966651e-05 -2.3064185e-12        9 
   21750 9.1900129e-06 2.5753555e-05 1.225335e-05 3.8006906e-05 -1.0762697e-11        9 
   21800 8.7586088e-06 2.5178352e-05 1.1678145e-05 3.6856497e-05 -1.5716975e-11        9 
   21850 8.5736175e-06 2.4931697e-05 1.143149e-05 3.6363187e-05 -1.7834492e-11        9 
   21900 8.6127683e-06 2.4983898e-05 1.1483691e-05 3.6467589e-05 -1.7330758e-11        9 
   21950 8.8809454e-06 2.5341467e-05 1.1841261e-05 3.7182727e-05 -1.4183322e-11        9 
   22000 9.4118089e-06 2.6049282e-05 1.2549078e-05 3.8598361e-05 -8.0896565e-12        9 
   22050 1.0279826e-05 2.7206635e-05 1.3706435e-05 4.091307e-05 1.7412557e-12        9 
   22100 1.1631979e-05 2.9009495e-05 1.5509306e-05 4.4518801e-05 1.6863531e-11        9 
   22150 1.377025e-05 3.1860501e-05 1.8360333e-05 5.0220834e-05 4.0594231e-11        9 
   22200 1.7401804e-05 3.6702509e-05 2.3202405e-05 5.9904914e-05 8.0501332e-11        9 
   22250 2.4657612e-05 4.6376648e-05 3.2876816e-05 7.9253465e-05 1.598845e-10        9 
   22300 4.6744597e-05 7.5822877e-05 6.2326129e-05 0.00013814901 4.0070889e-10        9 
   22350 0.00013685606 0.00019595559 0.00018247475 0.00037843034 1.3793802e-09        9 
   22400 3.496633e-05 6.012069e-05 4.6621774e-05 0.00010674246 2.689336e-10        9 
   22450 2.1310996e-05 4.1914645e-05 2.8414661e-05 7.0329307e-05 1.2046923e-10        9 
   22500 1.5776234e-05 3.4535115e-05 2.1034979e-05 5.5570093e-05 6.0612562e-11        9 
   22550 1.2783769e-05 3.0545203e-05 1.7045025e-05 4.7590228e-05 2.8345026e-11        9 
   22600 1.0953756e-05 2.8105202e-05 1.4605008e-05 4.271021e-05 8.7953529e-12        9 
   22650 9.7752991e-06 2.6533933e-05 1.3033732e-05 3.9567665e-05 -3.6943403e-12        9 
   22700 9.0173818e-06 2.5523381e-05 1.2023176e-05 3.7546556e-05 -1.1649544e-11        9 
   22750 8.564715e-06 2.4919827e-05 1.141962e-05 3.6339447e-05 -1.6340612e-11        9 
   22800 8.3597611e-06 2.4646555e-05 1.1146348e-05 3.5792903e-05 -1.841048e-11        9 
   22850 8.3799516e-06 2.4673476e-05 1.1173269e-05 3.5846745e-05 -1.812639e-11        9 
   22900 8.6298954e-06 2.5006733e-05 1.1506527e-05 3.6513261e-05 -1.5469042e-11        9 
   22950 9.1428932e-06 2.5690728e-05 1.2190524e-05 3.7881252e-05 -1.0100994e-11        9 
   23000 9.9928099e-06 2.6823946e-05 1.3323747e-05 4.0147692e-05 -1.3562841e-12        9 
   23050 1.1325428e-05 2.860076e-05 1.510057e-05 4.370133e-05 1.2249819e-11        9 
   23100 1.3439929e-05 3.1420073e-05 1.7919905e-05 4.9339978e-05 3.371595e-11        9 
   23150 1.7035392e-05 3.6213962e-05 2.2713857e-05 5.8927818e-05 6.9978465e-11        9 
   23200 2.4209669e-05 4.5779398e-05 3.2279559e-05 7.8058957e-05 1.4211764e-10        9 
   23250 4.5877493e-05 7.466687e-05 6.1169991e-05 0.00013583686 3.5950849e-10        9 
   23300 0.00014124902 0.00020182191 0.00018833203 0.00039015393 1.3140258e-09        9 
   23350 3.4915389e-05 6.0052731e-05 4.6553853e-05 0.00010660658 2.4760618e-10        9 
   23400 2.1061852e-05 4.158245e-05 2.8082469e-05 6.9664919e-05 1.0888483e-10        9 
   23450 1.547567e-05 3.4134362e-05 2.0634227e-05 5.4768589e-05 5.3100979e-11        9 
   23500 1.2460796e-05 3.0114573e-05 1.6614395e-05 4.6728968e-05 2.3113315e-11        9 
   23550 1.0618436e-05 2.7658108e-05 1.4157914e-05 4.1816023e-05 4.8687514e-12        9 
   23600 9.4323302e-06 2.6076641e-05 1.257644e-05 3.8653082e-05 -6.8173447e-12        9 
   23650 8.6694115e-06 2.505942e-05 1.1559215e-05 3.6618635e-05 -1.4290958e-11        9 
   23700 8.2134181e-06 2.4451431e-05 1.0951224e-05 3.5402655e-05 -1.8717971e-11        9 
   23750 8.0062521e-06 2.417521e-05 1.0675003e-05 3.4850213e-05 -2.0691458e-11        9 
   23800 8.0249424e-06 2.420013e-05 1.0699923e-05 3.4900053e-05 -2.0456614e-11        9 
   23850 8.2737224e-06 2.4531836e-05 1.103163e-05 3.5563466e-05 -1.7989079e-11        9 
   23900 8.7854355e-06 2.5214118e-05 1.1713914e-05 3.6928032e-05 -1.2987429e-11        9 
   23950 9.6332415e-06 2.6344521e-05 1.2844322e-05 3.9188843e-05 -4.7595933e-12        9 
   24000 1.0961601e-05 2.8115658e-05 1.4615469e-05 4.2731127e-05 8.0748051e-12        9 
   24050 1.3066711e-05 3.092245e-05 1.7422282e-05 4.8344732e-05 2.8329574e-11        9 
   24100 1.6639176e-05 3.5685675e-05 2.2185568e-05 5.7871243e-05 6.2619761e-11        9 
   24150 2.3742554e-05 4.5156584e-05 3.1656738e-05 7.6813322e-05 1.3065871e-10        9 
   24200 4.4995106e-05 7.3490483e-05 5.9993474e-05 0.00013348396 3.3398429e-10        9 
   24250 0.00014612813 0.0002083405 0.0001948375  0.000403178 1.300247e-09        9 
   24300 3.4904305e-05 6.0037911e-05 4.6539073e-05 0.00010657698 2.3651409e-10        9 
   24350 2.0851605e-05 4.1302116e-05 2.780214e-05 6.9104256e-05 1.0221448e-10        9 
   24400 1.5222153e-05 3.3796338e-05 2.0296204e-05 5.4092542e-05 4.8493052e-11        9 
   24450  1.21937e-05 2.9758444e-05 1.6258267e-05 4.6016712e-05 1.9652006e-11        9 
   24500 1.0347449e-05 2.7296793e-05 1.3796599e-05 4.1093391e-05 2.1092792e-12        9 
   24550 9.1615504e-06 2.5715602e-05 1.2215401e-05 3.7931002e-05 -9.1297353e-12        9 
   24600 8.4008301e-06 2.4701311e-05 1.1201107e-05 3.5902418e-05 -1.6319011e-11        9 
   24650 7.9480484e-06 2.4097604e-05 1.0597398e-05 3.4695002e-05 -2.0577734e-11        9 
   24700 7.7445536e-06 2.3826279e-05 1.0326072e-05 3.415235e-05 -2.2469681e-11        9 
   24750 7.7669786e-06 2.3856178e-05 1.0355971e-05 3.421215e-05 -2.2227827e-11        9 
   24800 8.0191788e-06 2.4192444e-05 1.0692238e-05 3.4884683e-05 -1.9837631e-11        9 
   24850 8.533517e-06 2.4878226e-05 1.1378023e-05 3.6256249e-05 -1.4975392e-11        9 
   24900 9.3823809e-06 2.6010041e-05 1.2509841e-05 3.8519882e-05 -6.979002e-12        9 
   24950 1.0708744e-05 2.7778515e-05 1.4278325e-05 4.205684e-05 5.4778468e-12        9 
   25000 1.2805391e-05 3.0574024e-05 1.7073855e-05 4.7647879e-05 2.513721e-11        9 
   25050 1.6353212e-05 3.5304391e-05 2.1804282e-05 5.7108673e-05 5.8348671e-11        9 
   25100 2.3376615e-05 4.4668675e-05 3.1168821e-05 7.5837495e-05 1.2404181e-10        9 
   25150 4.4161514e-05 7.2379171e-05 5.8882019e-05 0.00013126119 3.1835054e-10        9 
   25200 0.00015228064 0.00021656528 0.00020304086 0.00041960614 1.3282916e-09        9 
   25250 3.5075303e-05 6.0265859e-05 4.6767071e-05 0.00010703293 2.3299283e-10        9 
   25300 2.0786214e-05 4.1214925e-05 2.7714953e-05 6.8929877e-05 9.9480289e-11        9 
   25350 1.5106063e-05 3.364155e-05 2.0141417e-05 5.3782967e-05 4.645094e-11        9 
   25400 1.2061727e-05 2.9582479e-05 1.6082302e-05 4.5664781e-05 1.8045175e-11        9 
   25450 1.0210788e-05 2.7114577e-05 1.3614384e-05 4.0728961e-05 7.9754404e-13        9 
   25500 9.0248096e-06 2.553328e-05 1.2033079e-05 3.756636e-05 -1.0239797e-11        9 
   25550 8.2661312e-06 2.4521713e-05 1.1021508e-05 3.5543221e-05 -1.7290904e-11        9 
   25600 7.8163583e-06 2.3922018e-05 1.0421811e-05 3.4343829e-05 -2.1461418e-11        9 
   25650 7.6161933e-06 2.3655132e-05 1.0154924e-05 3.3810056e-05 -2.3306381e-11        9 
   25700 7.6418162e-06 2.3689295e-05 1.0189088e-05 3.3878384e-05 -2.3060547e-11        9 
   25750 7.8966579e-06 2.4029083e-05 1.0528877e-05 3.455796e-05 -2.06806e-11        9 
   25800 8.4125355e-06 2.4716918e-05 1.1216714e-05 3.5933632e-05 -1.5884351e-11        9 
   25850 9.2609403e-06 2.584812e-05 1.234792e-05 3.819604e-05 -8.0117559e-12        9 
   25900 1.0583082e-05 2.7610966e-05 1.4110776e-05 4.1721742e-05 4.2430253e-12        9 
   25950 1.2667655e-05 3.0390376e-05 1.6890207e-05 4.7280582e-05 2.3543965e-11        9 
   26000 1.6183837e-05 3.507856e-05 2.157845e-05 5.6657009e-05 5.6078266e-11        9 
   26050 2.310894e-05 4.4311784e-05 3.081192e-05 7.5123704e-05 1.2011793e-10        9 
   26100 4.3333957e-05 7.1275929e-05 5.7778609e-05 0.00012905454 3.0709154e-10        9 
   26150 0.00016040616 0.00022743908 0.00021387488 0.00044131396 1.3884848e-09        9 
   26200 3.5487481e-05 6.0815364e-05 4.7316641e-05 0.00010813201 2.314962e-10        9 
   26250 2.0884537e-05 4.1346015e-05 2.7846049e-05 6.9192065e-05 9.7745388e-11        9 
   26300 1.5135074e-05 3.368023e-05 2.0180099e-05 5.3860329e-05 4.5381468e-11        9 
   26350 1.2066976e-05 2.9589478e-05 1.6089301e-05 4.5678779e-05 1.7555493e-11        9 
   26400   1.0207e-05 2.7109526e-05 1.3609333e-05 4.0718859e-05 7.3870524e-13        9 
   26450 9.0181872e-06 2.552445e-05 1.202425e-05  3.75487e-05 -9.9814858e-12        9 
   26500 8.2597095e-06 2.4513151e-05 1.1012946e-05 3.5526097e-05 -1.6800486e-11        9 
   26550 7.811734e-06 2.3915852e-05 1.0415645e-05 3.4331497e-05 -2.0819083e-11        9 
   26600 7.6141839e-06 2.3652452e-05 1.0152245e-05 3.3804698e-05 -2.2588773e-11        9 
   26650 7.6427185e-06 2.3690498e-05 1.0190291e-05 3.388079e-05 -2.2318086e-11        9 
   26700 7.9003115e-06 2.4033955e-05 1.0533749e-05 3.4567703e-05 -1.9992241e-11        9 
   26750 8.4182401e-06 2.4724524e-05 1.122432e-05 3.5948844e-05 -1.5332282e-11        9 
   26800 9.2671694e-06 2.5856425e-05 1.2356226e-05 3.8212651e-05 -7.6936421e-12        9 
   26850 1.0586757e-05 2.7615866e-05 1.4115676e-05 4.1731542e-05 4.1288196e-12        9 
   26900 1.2662176e-05 3.0383072e-05 1.6882902e-05 4.7265974e-05 2.2644071e-11        9 
   26950 1.6152619e-05 3.5036937e-05 2.1536825e-05 5.6573762e-05 5.3646177e-11        9 
   27000 2.2995365e-05 4.416036e-05 3.0660487e-05 7.4820847e-05 1.1428065e-10        9 
   27050 4.2749066e-05 7.0496216e-05 5.6998754e-05 0.00012749497 2.8901688e-10        9 
   27100 0.00016771796 0.00023723843 0.00022362394 0.00046086237 1.390319e-09        9 
   27150 3.5999694e-05 6.1498252e-05 4.7999592e-05 0.00010949784 2.2574236e-10        9 
   27200 2.1099683e-05 4.1632871e-05 2.813291e-05 6.9765781e-05 9.5323798e-11        9 
   27250 1.528506e-05 3.388021e-05 2.0380079e-05 5.4260289e-05 4.4692165e-11        9 
   27300 1.2194834e-05 2.9759954e-05 1.6259778e-05 4.6019733e-05 1.789244e-11        9 
   27350 1.0326675e-05 2.7269093e-05  1.37689e-05 4.1037993e-05 1.7399354e-12        9 
   27400 9.1355868e-06 2.5680983e-05 1.2180782e-05 3.7861765e-05 -8.532902e-12        9 
   27450 8.3777486e-06 2.4670536e-05 1.1170331e-05 3.5840867e-05 -1.5055594e-11        9 
   27500 7.9319748e-06 2.4076173e-05 1.0575966e-05 3.4652139e-05 -1.8882222e-11        9 
   27550 7.7374677e-06 2.3816831e-05 1.0316624e-05 3.4133454e-05 -2.0542427e-11        9 
   27600 7.7694237e-06 2.3859439e-05 1.0359232e-05 3.421867e-05 -2.0255707e-11        9 
   27650 8.0304328e-06 2.420745e-05 1.0707244e-05 3.4914694e-05 -1.8006903e-11        9 
   27700 8.5513369e-06 2.4901986e-05 1.1401783e-05 3.6303769e-05 -1.3523333e-11        9 
   27750 9.4021417e-06 2.6036389e-05 1.2536189e-05 3.8572577e-05 -6.201025e-12        9 
   27800 1.0721258e-05 2.7795201e-05 1.4295011e-05 4.2090212e-05 5.1002906e-12        9 
   27850 1.279102e-05 3.0554863e-05 1.7054693e-05 4.7609556e-05 2.2763168e-11        9 
   27900 1.626257e-05 3.5183539e-05 2.1683426e-05 5.6866966e-05 5.2291073e-11        9 
   27950 2.304116e-05 4.4221426e-05 3.0721546e-05 7.4942972e-05 1.0978992e-10        9 
   28000 4.2424124e-05 7.0063069e-05 5.6565499e-05 0.00012662857 2.7393752e-10        9 
   28050 0.00017372313 0.00024529714 0.00023163083 0.00047692798 1.3832322e-09        9 
   28100 3.6572034e-05 6.2261319e-05 4.8762712e-05 0.00011102403 2.2112927e-10        9 
   28150 2.1421846e-05 4.2062416e-05 2.8562461e-05 7.0624877e-05 9.4006217e-11        9 
   28200 1.5554207e-05 3.4239072e-05 2.0738943e-05 5.4978015e-05 4.5047787e-11        9 
   28250 1.2447106e-05 3.0096318e-05 1.6596142e-05 4.6692459e-05 1.9221385e-11        9 
   28300 1.0573705e-05 2.7598466e-05 1.4098273e-05 4.169674e-05 3.7082701e-12        9 
   28350 9.3822536e-06 2.6009872e-05 1.2509671e-05 3.8519544e-05 -6.1339334e-12        9 
   28400 8.6264113e-06 2.5002086e-05 1.1501882e-05 3.6503968e-05 -1.2365027e-11        9 
   28450 8.1838407e-06 2.4411994e-05 1.0911788e-05 3.5323781e-05 -1.600442e-11        9 
   28500 7.9931165e-06 2.4157696e-05 1.0657489e-05 3.4815185e-05 -1.7565771e-11        9 
   28550 8.0290192e-06 2.4205566e-05 1.0705359e-05 3.4910925e-05 -1.7261129e-11        9 
   28600 8.2937819e-06 2.4558582e-05 1.1058376e-05 3.5616958e-05 -1.5074367e-11        9 
   28650 8.8178361e-06 2.5257319e-05 1.1757115e-05 3.7014434e-05 -1.0756792e-11        9 
   28700 9.6705695e-06 2.6394292e-05 1.2894093e-05 3.9288385e-05 -3.7354629e-12        9 
   28750 1.0989242e-05 2.8152513e-05 1.4652322e-05 4.2804836e-05 7.0835634e-12        9 
   28800 1.3053591e-05 3.0904959e-05 1.7404788e-05 4.8309748e-05 2.3958437e-11        9 
   28850 1.6507453e-05 3.5510051e-05 2.2009937e-05 5.7519988e-05 5.2076583e-11        9 
   28900 2.3227173e-05 4.4469449e-05 3.0969564e-05 7.5439014e-05 1.0667029e-10        9 
   28950 4.2278151e-05 6.9868532e-05 5.6370868e-05 0.0001262394 2.6120557e-10        9 
   29000 0.00017919724 0.00025265122 0.00023892966 0.00049158088 1.3671062e-09        9 
   29050 3.7243038e-05 6.315594e-05 4.9657384e-05 0.00011281332 2.1713586e-10        9 
   29100 2.1857462e-05 4.2643234e-05 2.9143283e-05 7.1786517e-05 9.354696e-11        9 
   29150 1.5939215e-05 3.4752415e-05 2.1252286e-05 5.6004701e-05 4.6256009e-11        9 
   29200 1.2814587e-05 3.0586291e-05 1.7086116e-05 4.7672408e-05 2.1347001e-11        9 
   29250 1.0933955e-05 2.8078799e-05 1.4578606e-05 4.2657405e-05 6.4114524e-12        9 
   29300 9.7393077e-06 2.6485944e-05 1.2985744e-05 3.9471688e-05 -3.0548391e-12        9 
   29350 8.9819573e-06 2.5476148e-05 1.1975943e-05 3.7452091e-05 -9.0440138e-12        9 
   29400 8.5384765e-06 2.4884842e-05 1.1384635e-05 3.6269477e-05 -1.2543341e-11        9 
   29450 8.3468314e-06 2.4629316e-05 1.1129109e-05 3.5758424e-05 -1.4050028e-11        9 
   29500 8.3813836e-06 2.4675385e-05 1.1175178e-05 3.5850563e-05 -1.3770532e-11        9 
   29550 8.6439979e-06 2.5025537e-05 1.152533e-05 3.6550867e-05 -1.1689865e-11        9 
   29600 9.1646803e-06 2.5719778e-05 1.2219574e-05 3.7939352e-05 -7.5778851e-12        9 
   29650 1.0012188e-05 2.6849785e-05 1.3349585e-05 4.0199369e-05 -8.9032591e-13        9 
   29700 1.1322631e-05 2.8597032e-05 1.5096841e-05 4.3693873e-05 9.4161319e-12        9 
   29750 1.3373194e-05 3.1331096e-05 1.7830925e-05 4.9162021e-05 2.5490594e-11        9 
   29800 1.6800618e-05 3.590094e-05 2.2400824e-05 5.8301764e-05 5.2253353e-11        9 
   29850 2.3453519e-05 4.4771249e-05 3.1271358e-05 7.6042607e-05 1.0410588e-10        9 
   29900 4.2178807e-05 6.9736161e-05 5.6238409e-05 0.00012597457 2.4983706e-10        9 
   29950 0.00018426275 0.00025946444 0.00024568367 0.00050514811 1.3523632e-09        9 
   30000 3.7910252e-05 6.4045507e-05 5.0547003e-05 0.00011459251 2.1357873e-10        9 
   30050 2.227923e-05 4.3205588e-05 2.9705641e-05 7.2911228e-05 9.3029561e-11        9 
   30100 1.6298166e-05 3.5231015e-05 2.1730887e-05 5.6961902e-05 4.7123458e-11        9 
   30150 1.3142386e-05 3.1023356e-05 1.7523181e-05 4.8546537e-05 2.2990502e-11        9 
   30200 1.1239932e-05 2.8486769e-05 1.4986577e-05 4.3473346e-05 8.4834802e-12        9 
   30250 1.002673e-05 2.6869174e-05 1.3368974e-05 4.0238148e-05 -7.4807714e-13        9 
   30300 9.2518584e-06 2.5836016e-05 1.2335811e-05 3.8171827e-05 -6.6326257e-12        9 
   30350 8.790892e-06 2.5221396e-05 1.1721189e-05 3.6942585e-05 -1.0123629e-11        9 
   30400 8.5812737e-06 2.4941906e-05 1.1441698e-05 3.6383604e-05 -1.1707977e-11        9 
   30450 8.5970353e-06 2.4962921e-05 1.1462714e-05 3.6425635e-05 -1.1583354e-11        9 
   30500 8.8397671e-06 2.5286562e-05 1.1786356e-05 3.7072919e-05 -9.7397456e-12        9 
   30550 9.3391512e-06 2.5952406e-05 1.2452202e-05 3.8404607e-05 -5.9512199e-12        9 
   30600 1.0163425e-05 2.7051433e-05 1.3551233e-05 4.0602666e-05 2.8870429e-13        9 
   30650 1.1447666e-05 2.8763747e-05 1.5263555e-05 4.4027302e-05 9.9286741e-12        9 
   30700 1.3466654e-05 3.145571e-05 1.7955539e-05 4.9411249e-05 2.4960004e-11        9 
   30750 1.6850252e-05 3.596712e-05 2.2467003e-05 5.8434123e-05 5.0031534e-11        9 
   30800 2.3420037e-05 4.4726612e-05 3.1226715e-05 7.5953328e-05 9.8486671e-11        9 
   30850 4.1812506e-05 6.9247844e-05 5.5750008e-05 0.00012499785 2.337536e-10        9 
   30900 0.00018860274 0.0002653126 0.00025147032 0.00051678292 1.3091501e-09        9 
   30950 3.8270357e-05 6.4525593e-05 5.1027143e-05 0.00011555274 2.0590134e-10        9 
   31000 2.2377231e-05 4.333625e-05 2.9836308e-05 7.3172558e-05 8.9264396e-11        9 
   31050 1.6320374e-05 3.5260625e-05 2.1760499e-05 5.7021124e-05 4.4954596e-11        9 
   31100 1.3121659e-05 3.0995721e-05 1.7495546e-05 4.8491266e-05 2.1662656e-11        9 
   31150 1.1186828e-05 2.8415964e-05 1.4915771e-05 4.3331735e-05 7.6499953e-12        9 
   31200 9.9458592e-06 2.6761346e-05 1.3261146e-05 4.0022492e-05 -1.2868221e-12        9 
   31250 9.1457031e-06 2.5694475e-05 1.2194271e-05 3.7888746e-05 -6.996415e-12        9 
   31300 8.6610215e-06 2.5048235e-05 1.1548029e-05 3.6596264e-05 -1.0423061e-11        9 
   31350 8.4288002e-06 2.4738608e-05  1.12384e-05 3.5977008e-05 -1.2035916e-11        9 
   31400 8.4227887e-06 2.4730592e-05 1.1230385e-05 3.5960977e-05 -1.2038986e-11        9 
   31450 8.6443329e-06 2.5025984e-05 1.1525777e-05 3.6551761e-05 -1.0438574e-11        9 
   31500 9.1228019e-06 2.566394e-05 1.2163736e-05 3.7827676e-05 -7.043484e-12        9 
   31550 9.9259042e-06 2.6734739e-05 1.3234539e-05 3.9969278e-05 -1.3940153e-12        9 
   31600 1.118766e-05 2.8417071e-05 1.491688e-05 4.3333951e-05 7.4077607e-12        9 
   31650 1.318039e-05 3.1074025e-05 1.7573853e-05 4.8647877e-05 2.1240134e-11        9 
   31700 1.6527031e-05 3.5536159e-05 2.2036041e-05  5.75722e-05 4.4373694e-11        9 
   31750 2.3022243e-05 4.4196227e-05 3.0696324e-05 7.4892551e-05 8.9119169e-11        9 
   31800 4.1096859e-05 6.8293727e-05 5.4795811e-05 0.00012308954 2.1339254e-10        9 
   31850 0.0001921038 0.00027004141 0.0002561384 0.00052617981 1.2480753e-09        9 
   31900  3.83066e-05 6.4573861e-05 5.1075466e-05 0.00011564933 1.9306851e-10        9 
   31950 2.2159548e-05 4.3046002e-05 2.9546064e-05 7.2592066e-05 8.2219965e-11        9 
   32000 1.6041123e-05 3.488829e-05 2.1388164e-05 5.6276454e-05 4.031138e-11        9 
   32050 1.2814956e-05 3.0586782e-05 1.7086608e-05 4.767339e-05 1.8284944e-11        9 
   32100 1.086402e-05 2.7985552e-05 1.4485359e-05 4.2470911e-05 5.0082245e-12        9 
   32150 9.6121647e-06 2.631642e-05 1.281622e-05 3.913264e-05 -3.4712038e-12        9 
   32200 8.8040717e-06 2.5238967e-05 1.1738762e-05 3.6977729e-05 -8.9136506e-12        9 
   32250 8.3133544e-06 2.4584679e-05 1.1084473e-05 3.5669151e-05 -1.2197377e-11        9 
   32300 8.0764106e-06 2.4268755e-05 1.0768547e-05 3.5037302e-05 -1.3762093e-11        9 
   32350 8.0665795e-06 2.4255646e-05 1.0755439e-05 3.5011086e-05 -1.3797983e-11        9 
   32400 8.2848373e-06 2.4546656e-05 1.104645e-05 3.5593106e-05 -1.2308538e-11        9 
   32450 8.7601158e-06 2.5180359e-05 1.1680154e-05 3.6860513e-05 -9.111115e-12        9 
   32500 9.5594675e-06 2.6246157e-05 1.2745957e-05 3.8992113e-05 -3.7692788e-12        9 
   32550 1.0815712e-05 2.7921142e-05 1.442095e-05 4.2342091e-05 4.5921042e-12        9 
   32600 1.2798527e-05 3.0564875e-05 1.7064703e-05 4.7629578e-05 1.7748373e-11        9 
   32650 1.6123591e-05 3.499824e-05 2.1498121e-05 5.6496361e-05 3.9739691e-11        9 
   32700 2.2557805e-05 4.3576981e-05 3.0077073e-05 7.3654054e-05 8.2228155e-11        9 
   32750 4.0323836e-05 6.7263109e-05 5.3765114e-05 0.00012102822 1.9941289e-10        9 
   32800 0.00019506011 0.0002740401 0.00026008015 0.00053412025 1.2169332e-09        9 
   32850 3.834281e-05 6.4622081e-05 5.1123747e-05 0.00011574583 1.8575538e-10        9 
   32900 2.1941121e-05 4.2754762e-05 2.9254829e-05 7.200959e-05 7.7667529e-11        9 
   32950 1.5771729e-05 3.4529096e-05 2.1028972e-05 5.5558069e-05 3.7062854e-11        9 
   33000 1.2529418e-05 3.0206065e-05 1.6705891e-05 4.6911956e-05 1.5760817e-11        9 
   33050 1.0573263e-05 2.7597876e-05 1.4097684e-05 4.1695559e-05 2.934293e-12        9 
   33100 9.320749e-06 2.5927866e-05 1.2427665e-05 3.8355531e-05 -5.2603942e-12        9 
   33150 8.5142274e-06 2.4852507e-05 1.1352303e-05 3.6204811e-05 -1.0524028e-11        9 
   33200 8.0262507e-06 2.4201874e-05 1.0701668e-05 3.4903541e-05 -1.3696252e-11        9 
   33250 7.7926288e-06 2.3890379e-05 1.0390172e-05 3.4280551e-05 -1.5201536e-11        9 
   33300 7.7862928e-06 2.3881931e-05 1.0381724e-05 3.4263655e-05 -1.5224047e-11        9 
   33350 8.0078441e-06 2.4177332e-05 1.0677125e-05 3.4854457e-05 -1.3765649e-11        9 
   33400 8.4857567e-06 2.4814546e-05 1.1314342e-05 3.6128889e-05 -1.0647277e-11        9 
   33450 9.2863709e-06 2.5882028e-05 1.2381828e-05 3.8263856e-05 -5.4428812e-12        9 
   33500 1.0541168e-05 2.7555083e-05 1.4054891e-05 4.1609974e-05 2.6968622e-12        9 
   33550 1.2516835e-05 3.0189286e-05 1.6689114e-05  4.68784e-05 1.5491485e-11        9 
   33600 1.5820803e-05 3.4594524e-05 2.1094404e-05 5.5688928e-05 3.6853539e-11        9 
   33650 2.2188542e-05 4.3084637e-05 2.9584723e-05 7.266936e-05 7.7991118e-11        9 
   33700 3.9610653e-05 6.6312285e-05 5.2814204e-05 0.00011912649 1.9048031e-10        9 
   33750 0.00019757786 0.00027744669 0.00026343715 0.00054088384 1.2074992e-09        9 
   33800 3.8562434e-05 6.491484e-05 5.1416579e-05 0.00011633142 1.8342834e-10        9 
   33850 2.1862467e-05 4.2649883e-05 2.9149956e-05 7.1799839e-05 7.5651781e-11        9 
   33900 1.563518e-05 3.434703e-05 2.0846907e-05 5.5193937e-05 3.5489425e-11        9 
   33950 1.2375271e-05 3.0000535e-05 1.6500362e-05 4.6500897e-05 1.4483569e-11        9 
   34000  1.04139e-05 2.7385392e-05  1.38852e-05 4.1270593e-05 1.8576299e-12        9 
   34050 9.1611478e-06 2.5715064e-05 1.2214864e-05 3.7929928e-05 -6.1976361e-12        9 
   34100 8.3566536e-06 2.4642409e-05 1.1142205e-05 3.5784614e-05 -1.136409e-11        9 
   34150 7.8717422e-06 2.3995863e-05 1.0495656e-05 3.4491519e-05 -1.4471786e-11        9 
   34200 7.6415533e-06 2.3688945e-05 1.0188738e-05 3.3877683e-05 -1.5939807e-11        9 
   34250 7.6385618e-06 2.3684956e-05 1.0184749e-05 3.3869705e-05 -1.5948348e-11        9 
   34300 7.8629544e-06 2.3984145e-05 1.0483939e-05 3.4468085e-05 -1.4504427e-11        9 
   34350 8.3426883e-06 2.4623789e-05 1.1123584e-05 3.5747373e-05 -1.1421991e-11        9 
   34400 9.1432728e-06 2.5691231e-05 1.219103e-05 3.7882261e-05 -6.2875129e-12        9 
   34450 1.0394588e-05 2.7359642e-05 1.385945e-05 4.1219092e-05 1.7244684e-12        9 
   34500 1.2359683e-05 2.997975e-05 1.6479577e-05 4.6459327e-05 1.4295085e-11        9 
   34550 1.5635905e-05 3.4347996e-05 2.0847874e-05 5.519587e-05 3.5238025e-11        9 
   34600 2.1920327e-05 4.2727024e-05 2.9227103e-05 7.1954127e-05 7.5387397e-11        9 
   34650 3.8923025e-05 6.5395552e-05 5.1897367e-05 0.00011729292 1.8397882e-10        9 
   34700 0.00019863333 0.00027887529 0.00026484444 0.00054371973 1.2011505e-09        9 
   34750 3.9053845e-05 6.5569955e-05 5.2071793e-05 0.00011764175 1.8391559e-10        9 
   34800 2.1953726e-05 4.2771555e-05 2.9271635e-05 7.204319e-05 7.4883327e-11        9 
   34850 1.5646865e-05 3.4362608e-05 2.0862486e-05 5.5225094e-05 3.4865406e-11        9 
   34900 1.2360623e-05 2.9981004e-05 1.6480831e-05 4.6461835e-05 1.4090845e-11        9 
   34950 1.0389341e-05 2.7352646e-05 1.3852455e-05 4.1205101e-05 1.6625956e-12        9 
   35000 9.1334168e-06 2.5678089e-05 1.2177889e-05 3.7855978e-05 -6.2337721e-12        9 
   35050 8.3289917e-06 2.4605526e-05 1.1105322e-05 3.5710849e-05 -1.1281821e-11        9 
   35100 7.8458333e-06 2.3961317e-05 1.0461111e-05 3.4422428e-05 -1.4306184e-11        9 
   35150 7.6182524e-06 2.3657877e-05 1.015767e-05 3.3815547e-05 -1.572413e-11        9 
   35200 7.6181826e-06 2.3657784e-05 1.0157577e-05 3.3815361e-05 -1.5719936e-11        9 
   35250 7.8453503e-06 2.3960673e-05 1.0460467e-05 3.442114e-05 -1.4288443e-11        9 
   35300 8.327186e-06 2.4603119e-05 1.1102915e-05 3.5706034e-05 -1.1264485e-11        9 
   35350 9.1284145e-06 2.567142e-05 1.2171219e-05 3.7842639e-05 -6.2429073e-12        9 
   35400 1.0377471e-05 2.733682e-05 1.3836628e-05 4.1173448e-05 1.577808e-12        9 
   35450  1.23342e-05 2.9945774e-05  1.64456e-05 4.6391373e-05 1.3782951e-11        9 
   35500 1.5587128e-05 3.428296e-05 2.0782837e-05 5.5065797e-05 3.4018009e-11        9 
   35550 2.1799834e-05 4.2566374e-05 2.9066445e-05 7.1632819e-05 7.2573993e-11        9 
   35600 3.8439534e-05 6.4750987e-05 5.1252712e-05 0.0001160037 1.7569065e-10        9 
   35650 0.00019709139 0.00027679019 0.00026278852 0.0005395787 1.1555801e-09        9 
   35700 3.9656107e-05 6.6372875e-05 5.287481e-05 0.00011924768 1.8110809e-10        9 
   35750 2.2165554e-05 4.3053984e-05 2.9554071e-05 7.2608056e-05 7.3550023e-11        9 
   35800 1.5781337e-05 3.4541903e-05 2.1041783e-05 5.5583686e-05 3.4465464e-11        9 
   35850 1.2469476e-05 3.0126141e-05 1.6625969e-05 4.675211e-05 1.4260636e-11        9 
   35900 1.0488568e-05 2.7484949e-05 1.3984758e-05 4.1469707e-05 2.2080695e-12        9 
   35950 9.2296198e-06 2.580636e-05 1.230616e-05 3.8112519e-05 -5.4346979e-12        9 
   36000 8.4253795e-06 2.4734044e-05 1.1233839e-05 3.5967883e-05 -1.030777e-11        9 
   36050 7.9441148e-06 2.4092359e-05 1.0592153e-05 3.4684512e-05 -1.3216716e-11        9 
   36100 7.7193545e-06 2.379268e-05 1.0292473e-05 3.4085152e-05 -1.4568911e-11        9 
   36150 7.7225436e-06 2.3796932e-05 1.0296725e-05 3.4093657e-05 -1.4541182e-11        9 
   36200 7.9530177e-06 2.410423e-05 1.0604024e-05 3.4708253e-05 -1.3140168e-11        9 
   36250 8.4377804e-06 2.4750578e-05 1.1250374e-05 3.6000952e-05 -1.0204046e-11        9 
   36300 9.2409285e-06 2.5821438e-05 1.2321238e-05 3.8142676e-05 -5.3457204e-12        9 
   36350 1.0489739e-05 2.7486511e-05 1.3986319e-05 4.147283e-05 2.2005953e-12        9 
   36400 1.2441483e-05 3.0088818e-05 1.6588644e-05 4.6677462e-05 1.3957873e-11        9 
   36450 1.5677622e-05 3.440362e-05 2.0903496e-05 5.5307116e-05 3.3398577e-11        9 
   36500 2.1835105e-05 4.2613407e-05 2.9113473e-05 7.172688e-05 7.0305864e-11        9 
   36550 3.8190899e-05 6.4419542e-05 5.0921198e-05 0.00011534074 1.6820372e-10        9 
   36600 0.0001944875 0.00027326801 0.00025931667 0.00053258467 1.1008327e-09        9 
   36650 4.0298745e-05 6.7229641e-05 5.373166e-05 0.0001209613 1.7888296e-10        9 
   36700 2.247929e-05 4.3472294e-05 2.9972387e-05 7.3444681e-05 7.2928203e-11        9 
   36750 1.603204e-05 3.4876172e-05 2.1376053e-05 5.6252225e-05 3.4778544e-11        9 
   36800 1.2700498e-05 3.043417e-05 1.6933998e-05 4.7368167e-05 1.513164e-11        9 
   36850 1.0713242e-05 2.7784514e-05 1.4284323e-05 4.2068836e-05 3.4513534e-12        9 
   36900 9.4534174e-06 2.6104756e-05 1.2604557e-05 3.8709313e-05 -3.9376962e-12        9 
   36950 8.6509288e-06 2.5034776e-05 1.1534572e-05 3.6569347e-05 -8.6354818e-12        9 
   37000 8.1727742e-06 2.4397238e-05 1.0897032e-05 3.529427e-05 -1.1428115e-11        9 
   37050 7.9518087e-06 2.4102618e-05 1.0602412e-05 3.470503e-05 -1.2713168e-11        9 
   37100 7.9590445e-06 2.4112266e-05 1.0612059e-05 3.4724325e-05 -1.2664135e-11        9 
   37150 8.1934602e-06 2.442482e-05 1.0924614e-05 3.5349433e-05 -1.1288911e-11        9 
   37200 8.6816644e-06 2.5075757e-05 1.1575552e-05 3.6651309e-05 -8.4329051e-12        9 
   37250 9.4871756e-06 2.6149768e-05 1.2649568e-05 3.8799335e-05 -3.726057e-12        9 
   37300 1.0736216e-05 2.7815147e-05 1.4314955e-05 4.2130102e-05 3.5640935e-12        9 
   37350 1.2683728e-05 3.0411812e-05 1.6911637e-05 4.7323449e-05 1.4899062e-11        9 
   37400 1.5904809e-05 3.4706537e-05 2.1206411e-05 5.5912948e-05 3.3581539e-11        9 
   37450 2.2012523e-05 4.2849969e-05 2.9350031e-05     7.22e-05 6.8968584e-11        9 
   37500 3.811556e-05 6.4319151e-05 5.0820747e-05 0.0001151399 1.6211144e-10        9 
   37550 0.00019138408 0.00026907177 0.00025517877 0.00052425055 1.0461708e-09        9 
   37600 4.1036907e-05 6.8213777e-05 5.4715875e-05 0.00012292965 1.7716387e-10        9 
   37650 2.2910187e-05 4.4046817e-05 3.0546916e-05 7.4593734e-05 7.2959906e-11        9 
   37700 1.640439e-05 3.5372637e-05 2.1872519e-05 5.7245156e-05 3.5740422e-11        9 
   37750 1.3053969e-05 3.0905463e-05 1.7405291e-05 4.8310754e-05 1.6635815e-11        9 
   37800 1.1059726e-05 2.8246493e-05 1.4746302e-05 4.2992795e-05 5.3022482e-12        9 
   37850 9.7975678e-06 2.6563623e-05 1.3063424e-05 3.9627047e-05 -1.85639e-12        9 
   37900 8.9947672e-06 2.5493227e-05 1.1993023e-05 3.748625e-05 -6.4011853e-12        9 
   37950 8.5171343e-06 2.4856385e-05 1.1356179e-05 3.6212564e-05 -9.0994878e-12        9 
   38000 8.2968775e-06 2.456271e-05 1.1062503e-05 3.5625214e-05 -1.0337063e-11        9 
   38050 8.3045776e-06 2.4572977e-05 1.107277e-05 3.5645747e-05 -1.0288929e-11        9 
   38100 8.5388469e-06 2.4885335e-05 1.1385129e-05 3.6270464e-05 -8.9616185e-12        9 
   38150 9.0258831e-06 2.5534715e-05 1.2034511e-05 3.7569226e-05 -6.2081967e-12        9 
   38200 9.8286125e-06 2.6605017e-05 1.3104817e-05 3.9709834e-05 -1.6742812e-12        9 
   38250 1.1072199e-05 2.8263125e-05 1.4762932e-05 4.3026057e-05 5.3408322e-12        9 
   38300 1.3009294e-05  3.08459e-05 1.7345726e-05 4.8191626e-05 1.6239345e-11        9 
   38350 1.6208827e-05 3.5111896e-05 2.161177e-05 5.6723666e-05 3.4180305e-11        9 
   38400   2.2261e-05 4.3181277e-05 2.9681334e-05 7.2862611e-05 6.8086362e-11        9 
   38450 3.8116075e-05 6.4319894e-05 5.0821433e-05 0.00011514133 1.5676956e-10        9 
   38500 0.00018779688 0.00026422716 0.00025039585 0.00051462301 9.9192122e-10        9 
   38550 4.180764e-05 6.9241341e-05 5.5743521e-05 0.00012498486 1.7564382e-10        9 
   38600 2.3367016e-05 4.4655917e-05 3.1156022e-05 7.5811939e-05 7.3098343e-11        9 
   38650 1.6793276e-05 3.589115e-05 2.2391034e-05 5.8282184e-05 3.6714851e-11        9 
   38700 1.3412887e-05 3.138402e-05 1.7883849e-05 4.926787e-05 1.8065108e-11        9 
   38750 1.1399463e-05 2.8699475e-05 1.5199284e-05 4.3898758e-05 6.9938423e-12        9 
   38800 1.0121877e-05 2.6996036e-05 1.3495837e-05 4.0491873e-05 -1.7939079e-14        9 
   38850 9.3048784e-06 2.5906708e-05 1.2406505e-05 3.8313213e-05 -4.4935788e-12        9 
   38900 8.8131539e-06 2.5251078e-05 1.1750872e-05 3.700195e-05 -7.1804541e-12        9 
   38950 8.5783224e-06 2.493797e-05 1.1437763e-05 3.6375734e-05 -8.4613699e-12        9 
   39000 8.5705918e-06 2.4927663e-05 1.1427456e-05 3.6355118e-05 -8.5000375e-12        9 
   39050 8.7882701e-06  2.52179e-05 1.1717693e-05 3.6935593e-05 -7.307189e-12        9 
   39100 9.2572152e-06 2.5843158e-05 1.2342954e-05 3.8186112e-05 -4.7418974e-12        9 
   39150 1.0039841e-05 2.6886655e-05 1.3386455e-05 4.027311e-05 -4.659625e-13        9 
   39200 1.1260347e-05 2.8513989e-05 1.5013797e-05 4.3527786e-05 6.1939665e-12        9 
   39250 1.3169213e-05 3.1059125e-05 1.755895e-05 4.8618076e-05 1.6581364e-11        9 
   39300 1.6329391e-05 3.5272649e-05 2.1772521e-05 5.704517e-05 3.3674959e-11        9 
   39350 2.2308821e-05 4.3245042e-05 2.9745095e-05 7.2990137e-05 6.5891014e-11        9 
   39400 3.7905087e-05 6.403863e-05 5.0540116e-05 0.00011457875 1.497226e-10        9 
   39450 0.00018351493 0.00025845656 0.00024468657 0.00050314313 9.3015871e-10        9 
   39500 4.2325982e-05 6.993238e-05 5.6434643e-05 0.00012636702 1.7236456e-10        9 
   39550 2.3551174e-05 4.4901456e-05 3.1401566e-05 7.6303022e-05 7.1620703e-11        9 
   39600 1.6893581e-05 3.602489e-05 2.2524775e-05 5.8549666e-05 3.5984646e-11        9 
   39650 1.3468044e-05 3.1457563e-05 1.7957392e-05 4.9414955e-05 1.7705431e-11        9 
   39700 1.1421055e-05 2.8728264e-05 1.5228073e-05 4.3956337e-05 6.8447688e-12        9 
   39750 1.0114616e-05 2.6986355e-05 1.3486155e-05 4.047251e-05 -5.5450848e-14        9 
   39800 9.2710921e-06 2.586166e-05 1.2361456e-05 3.8223116e-05 -4.4845738e-12        9 
   39850 8.7541742e-06 2.5172438e-05 1.1672232e-05 3.6844671e-05 -7.1680267e-12        9 
   39900 8.4950024e-06 2.4826877e-05 1.132667e-05 3.6153547e-05 -8.4988025e-12        9 
   39950 8.4635077e-06 2.4784884e-05 1.1284677e-05 3.6069561e-05 -8.6386901e-12        9 
   40000 8.6577759e-06 2.5043907e-05 1.1543701e-05 3.6587609e-05 -7.607639e-12        9 
   40050 9.103391e-06 2.5638059e-05 1.2137855e-05 3.7775914e-05 -5.2829423e-12        9 
   40100 9.8623042e-06 2.6649939e-05 1.3149739e-05 3.9799678e-05 -1.3538411e-12        9 
   40150 1.1057782e-05 2.8243902e-05 1.4743709e-05 4.2987611e-05 4.7936569e-12        9 
   40200 1.2938146e-05 3.0751037e-05 1.7250861e-05 4.8001898e-05 1.4408829e-11        9 
   40250 1.6060392e-05 3.4913984e-05 2.1413856e-05 5.632784e-05 3.0322609e-11        9 
   40300 2.1970382e-05 4.2793794e-05 2.9293842e-05 7.2087637e-05 6.0352773e-11        9 
   40350 3.7316468e-05 6.3253855e-05 4.9755291e-05 0.00011300915 1.3818745e-10        9 
   40400 0.00017848631 0.00025169368 0.00023798175 0.00048967543 8.5260694e-10        9 
   40450 4.248535e-05 7.0144783e-05 5.6647134e-05 0.00012679192 1.6363562e-10        9 
   40500 2.3378465e-05 4.4671171e-05 3.1171287e-05 7.5842457e-05 6.6853432e-11        9 
   40550 1.6647419e-05 3.5696673e-05 2.2196559e-05 5.7893232e-05 3.2822458e-11        9 
   40600 1.3188815e-05 3.1085257e-05 1.7585086e-05 4.8670343e-05 1.5384877e-11        9 
   40650 1.112154e-05 2.8328911e-05 1.482872e-05 4.3157632e-05 4.9941654e-12        9 
   40700 9.8005659e-06 2.6567621e-05 1.3067421e-05 3.9635042e-05 -1.6233955e-12        9 
   40750 8.9457377e-06 2.5427854e-05 1.192765e-05 3.7355504e-05 -5.8835242e-12        9 
   40800 8.4196218e-06 2.4726368e-05 1.1226162e-05 3.5952531e-05 -8.4908897e-12        9 
   40850 8.1527447e-06 2.4370533e-05 1.0870326e-05 3.5240859e-05 -9.7998564e-12        9 
   40900 8.114624e-06 2.4319706e-05 1.0819499e-05 3.5139204e-05 -9.9698196e-12        9 
   40950 8.302985e-06 2.4570853e-05 1.1070647e-05  3.56415e-05 -9.0186976e-12        9 
   41000 8.7429974e-06 2.5157534e-05 1.165733e-05 3.6814864e-05 -6.8283333e-12        9 
   41050 9.4960039e-06 2.6161539e-05 1.2661339e-05 3.8822877e-05 -3.1032171e-12        9 
   41100 1.0684181e-05 2.7745767e-05 1.4245575e-05 4.1991342e-05 2.7521616e-12        9 
   41150 1.2553503e-05 3.0238179e-05 1.6738003e-05 4.6976182e-05 1.1936945e-11        9 
   41200 1.5654716e-05 3.4373083e-05 2.0872954e-05 5.5246038e-05 2.7136405e-11        9 
   41250 2.1510989e-05 4.2181275e-05 2.8681319e-05 7.0862594e-05 5.5785018e-11        9 
   41300 3.6620076e-05 6.2325384e-05 4.8826768e-05 0.00011115215 1.2961807e-10        9 
   41350 0.00017297773  0.000244295 0.00023063697 0.00047493197 7.949158e-10        9 
   41400 4.2598026e-05 7.0294922e-05 5.6797368e-05 0.00012709229 1.584051e-10        9 
   41450 2.3157354e-05 4.437635e-05 3.0876472e-05 7.5252821e-05 6.3481542e-11        9 
   41500 1.6365781e-05 3.5321154e-05 2.1821041e-05 5.7142196e-05 3.035806e-11        9 
   41550 1.2887855e-05 3.0683977e-05 1.7183806e-05 4.7867783e-05 1.3419627e-11        9 
   41600 1.0813637e-05 2.7918373e-05 1.4418182e-05 4.2336555e-05 3.3407777e-12        9 
   41650 9.4908139e-06 2.6154618e-05 1.2654419e-05 3.8809036e-05 -3.0741945e-12        9 
   41700 8.6366432e-06 2.5015728e-05 1.1515524e-05 3.6531252e-05 -7.2070412e-12        9 
   41750 8.1125359e-06 2.431692e-05 1.0816715e-05 3.5133635e-05 -9.7342588e-12        9 
   41800 7.8483918e-06 2.3964729e-05 1.0464522e-05 3.4429252e-05 -1.0998782e-11        9 
   41850 7.8133049e-06 2.3917947e-05 1.041774e-05 3.4335686e-05 -1.1155081e-11        9 
   41900 8.0046263e-06 2.4173041e-05 1.0672835e-05 3.4845876e-05 -1.0220288e-11        9 
   41950 8.4470864e-06 2.4762986e-05 1.1262782e-05 3.6025768e-05 -8.0795408e-12        9 
   42000 9.2013676e-06 2.5768691e-05 1.226849e-05 3.8037181e-05 -4.4441229e-12        9 
   42050 1.0388438e-05 2.7351443e-05 1.3851251e-05 4.1202694e-05 1.265377e-12        9 
   42100 1.2251639e-05 2.9835695e-05 1.6335519e-05 4.6171214e-05 1.0211806e-11        9 
   42150 1.5334686e-05 3.3946378e-05 2.0446247e-05 5.4392625e-05 2.4995487e-11        9 
   42200 2.1135283e-05 4.1680338e-05 2.8180377e-05 6.9860715e-05 5.2782959e-11        9 
   42250 3.5984477e-05 6.1477973e-05 4.7979302e-05 0.00010945728 1.2387567e-10        9 
   42300 0.0001666963 0.00023586754 0.00022226174 0.00045812927 7.4904658e-10        9 
   42350 4.2894167e-05 7.0689663e-05 5.7192223e-05 0.00012788189 1.5674231e-10        9 
   42400 2.306724e-05 4.4256191e-05 3.075632e-05 7.5012511e-05 6.1858241e-11        9 
   42450 1.6209013e-05 3.5112129e-05 2.1612018e-05 5.6724147e-05 2.9058217e-11        9 
   42500 1.2711473e-05  3.04488e-05 1.694863e-05 4.739743e-05 1.2345694e-11        9 
   42550  1.06314e-05 2.767539e-05 1.4175199e-05 4.1850589e-05 2.4148519e-12        9 
   42600 9.3081167e-06 2.5911022e-05 1.2410822e-05 3.8321844e-05 -3.8947712e-12        9 
   42650 8.4559175e-06 2.477476e-05 1.1274557e-05 3.6049317e-05 -7.9533303e-12        9 
   42700 7.9349034e-06 2.4080077e-05 1.0579871e-05 3.4659948e-05 -1.0429876e-11        9 
   42750 7.6742765e-06 2.3732575e-05 1.0232369e-05 3.3964944e-05 -1.1663501e-11        9 
   42800 7.6426691e-06 2.3690432e-05 1.0190225e-05 3.3880658e-05 -1.1806093e-11        9 
   42850 7.8370261e-06 2.3949574e-05 1.0449368e-05 3.4398942e-05 -1.0878265e-11        9 
   42900 8.2815862e-06 2.4542319e-05 1.1042115e-05 3.5584434e-05 -8.7597524e-12        9 
   42950 9.0362608e-06 2.5548548e-05 1.2048348e-05 3.7596896e-05 -5.1703106e-12        9 
   43000 1.0220562e-05 2.7127609e-05 1.3627416e-05 4.0755026e-05 4.5289982e-13        9 
   43050  1.20746e-05 2.9599643e-05 1.6099467e-05 4.5699109e-05 9.2476178e-12        9 
   43100 1.5133385e-05 3.3677978e-05 2.0177846e-05 5.3855824e-05 2.3746661e-11        9 
   43150 2.0863116e-05 4.1317455e-05 2.7817488e-05 6.9134943e-05 5.0890686e-11        9 
   43200 3.5390449e-05 6.0686003e-05 4.7187265e-05 0.00010787327 1.1968953e-10        9 
   43250 0.00015860449 0.00022502655 0.00021147265 0.0004364992 7.0285884e-10        9 
   43300 4.3502794e-05 7.1501009e-05 5.8003725e-05 0.00012950473 1.5798435e-10        9 
   43350 2.3153409e-05 4.4371073e-05 3.0871211e-05 7.5242285e-05 6.1468266e-11        9 
   43400 1.6203434e-05 3.5104688e-05 2.1604579e-05 5.6709267e-05 2.8610601e-11        9 
   43450 1.267674e-05 3.0402489e-05 1.690232e-05 4.7304809e-05 1.1991381e-11        9 
   43500 1.0585855e-05 2.7614664e-05 1.4114474e-05 4.1729137e-05 2.1627078e-12        9 
   43550 9.2590817e-06 2.5845641e-05 1.2345442e-05 3.8191084e-05 -4.0612217e-12        9 
   43600 8.4068489e-06 2.4709335e-05 1.1209132e-05 3.5918467e-05 -8.0489574e-12        9 
   43650 7.8875734e-06 2.401697e-05 1.0516765e-05 3.4533735e-05 -1.0474337e-11        9 
   43700 7.629576e-06 2.3672975e-05 1.0172768e-05 3.3845743e-05 -1.1674627e-11        9 
   43750 7.6009264e-06 2.3634775e-05 1.0134569e-05 3.3769344e-05 -1.1805275e-11        9 
   43800 7.7981053e-06 2.389768e-05 1.0397474e-05 3.4295154e-05 -1.0877972e-11        9 
   43850 8.2448377e-06 2.4493321e-05 1.0993117e-05 3.5486438e-05 -8.7866221e-12        9 
   43900 9.0002889e-06 2.5500586e-05 1.2000385e-05 3.7500971e-05 -5.2551053e-12        9 
   43950 1.0182625e-05 2.7077026e-05 1.3576833e-05 4.065386e-05 2.6843131e-13        9 
   44000 1.2029028e-05 2.953888e-05 1.6038704e-05 4.5577584e-05 8.8784108e-12        9 
   44050 1.5066681e-05 3.3589041e-05 2.0088908e-05 5.3677948e-05 2.3007367e-11        9 
[...]
  189150 8.1369028e-06 2.4349404e-05 1.0849204e-05 3.5198608e-05 -9.5783694e-13        9 
  189200 8.0680583e-06 2.4257612e-05 1.0757411e-05 3.5015023e-05 -9.9049286e-13        9 
  189250 8.2242137e-06 2.4465819e-05 1.0965618e-05 3.5431437e-05 -9.1484352e-13        9 
  189300 8.6263577e-06 2.5002009e-05 1.150181e-05 3.6503819e-05 -7.209464e-13        9 
  189350 9.3296544e-06 2.5939734e-05 1.2439539e-05 3.8379274e-05 -3.8239467e-13        9 
  189400 1.0445028e-05 2.7426893e-05 1.3926705e-05 4.1353598e-05 1.5371482e-13        9 
  189450 1.2194004e-05 2.9758845e-05 1.6258672e-05 4.6017517e-05 9.9359379e-13        9 
  189500 1.5062508e-05 3.3583477e-05 2.0083343e-05 5.366682e-05 2.3701648e-12        9 
  189550 2.0343222e-05 4.062429e-05 2.7124296e-05 6.7748586e-05 4.9030326e-12        9 
  189600 3.3092391e-05 5.7622256e-05 4.4123188e-05 0.00010174544 1.1016211e-11        9 
  189650 0.00011705335 0.00016953592 0.00015607113 0.00032560705 5.1277877e-11        9 
  189700 4.880805e-05 7.8573425e-05  6.50774e-05 0.00014365082 1.8540059e-11        9 
  189750 2.4634564e-05 4.6345876e-05 3.2846086e-05 7.9191962e-05 6.9510006e-12        9 
  189800 1.7013812e-05 3.6185175e-05 2.2685083e-05 5.8870258e-05 3.2988593e-12        9 
  189850 1.3240606e-05 3.1154301e-05 1.7654142e-05 4.8808443e-05 1.4914488e-12        9 
  189900 1.1024213e-05 2.8199133e-05 1.469895e-05 4.2898083e-05 4.3023568e-13        9 
  189950 9.6194363e-06 2.6326108e-05 1.2825915e-05 3.9152023e-05 -2.4191035e-13        9 
  190000 8.7112754e-06 2.5115231e-05 1.1615034e-05 3.6730265e-05 -6.7615393e-13        9 
  190050 8.1471477e-06 2.4363063e-05 1.0862864e-05 3.5225927e-05 -9.4563192e-13        9 
  190100 7.8496743e-06 2.3966433e-05 1.0466232e-05 3.4432666e-05 -1.0874554e-12        9 
  190150 7.7833276e-06 2.3877971e-05 1.037777e-05 3.4255741e-05 -1.118764e-12        9 
  190200 7.9416491e-06 2.4089066e-05 1.0588866e-05 3.4677931e-05 -1.0429466e-12        9 
  190250 8.3450977e-06 2.4626996e-05 1.1126797e-05 3.5753792e-05 -8.4995393e-13        9 
  190300 9.0480349e-06 2.5564242e-05 1.2064046e-05 3.7628288e-05 -5.1416144e-13        9 
  190350 1.0159895e-05 2.7046716e-05 1.3546527e-05 4.0593243e-05 1.6584268e-14        9 
  190400 1.189895e-05 2.936544e-05 1.5865267e-05 4.5230707e-05 8.4621742e-13        9 
  190450 1.4742579e-05 3.3156906e-05 1.9656771e-05 5.2813677e-05 2.2021789e-12        9 
  190500 1.9953871e-05 4.0105161e-05 2.6605162e-05 6.6710323e-05 4.6862723e-12        9 
  190550 3.2415779e-05 5.6720158e-05 4.3221039e-05 9.9941197e-05 1.0625461e-11        9 
  190600 0.00011077828 0.00016116978 0.00014770437 0.00030887414 4.7977526e-11        9 
  190650 4.9687543e-05 7.974577e-05 6.6250058e-05 0.00014599583 1.8849868e-11        9 
  190700 2.4667421e-05 4.638967e-05 3.2889894e-05 7.9279565e-05 6.9266571e-12        9 
  190750 1.6917183e-05 3.6056333e-05 2.2556244e-05 5.8612577e-05 3.2343162e-12        9 
  190800 1.3103573e-05 3.0971589e-05 1.747143e-05 4.8443019e-05 1.4179391e-12        9 
  190850 1.0871541e-05 2.799557e-05 1.4495388e-05 4.2490957e-05 3.5527144e-13        9 
  190900 9.4607878e-06 2.6114576e-05 1.2614384e-05 3.872896e-05 -3.1614964e-13        9 
  190950 8.5512034e-06 2.4901802e-05 1.1401605e-05 3.6303406e-05 -7.4872011e-13        9 
  191000 7.9880535e-06 2.4150938e-05 1.0650738e-05 3.4801676e-05 -1.0161212e-12        9 
  191050 7.6928868e-06 2.3757383e-05 1.0257182e-05 3.4014565e-05 -1.155931e-12        9 
  191100 7.6295348e-06 2.3672914e-05 1.0172713e-05 3.3845627e-05 -1.1857952e-12        9 
  191150 7.7910535e-06 2.3888272e-05 1.0388071e-05 3.4276343e-05 -1.1086846e-12        9 
  191200 8.1974087e-06 2.4430077e-05 1.0929878e-05 3.5359955e-05 -9.154807e-13        9 
  191250 8.9022978e-06 2.5369926e-05 1.186973e-05 3.7239656e-05 -5.8066724e-13        9 
  191300 1.0014029e-05 2.6852227e-05 1.3352038e-05 4.0204265e-05 -5.2759794e-14        9 
  191350 1.1748535e-05 2.9164887e-05 1.5664713e-05 4.4829599e-05 7.7088484e-13        9 
  191400 1.4577205e-05 3.2936409e-05 1.9436273e-05 5.2372682e-05 2.1141484e-12        9 
  191450 1.9742594e-05 3.9823463e-05 2.6323459e-05 6.6146922e-05 4.5661432e-12        9 
  191500 3.2008491e-05 5.6177143e-05 4.2677988e-05 9.8855131e-05 1.038794e-11        9 
  191550 0.00010663434 0.00015564589 0.00014217912 0.00029782501 4.5814129e-11        9 
  191600 5.0442354e-05 8.075194e-05 6.7256472e-05 0.00014800841 1.9132198e-11        9 
  191650 2.477193e-05 4.6529005e-05 3.302924e-05 7.9558244e-05 6.9380815e-12        9 
  191700 1.6924591e-05 3.6066208e-05 2.2566121e-05 5.8632329e-05 3.2168011e-12        9 
  191750 1.308156e-05 3.0942237e-05 1.7442079e-05 4.8384317e-05 1.3974303e-12        9 
  191800 1.0838859e-05 2.7951994e-05 1.4451812e-05 4.2403806e-05 3.3705302e-13        9 
  191850 9.4247275e-06 2.6066496e-05 1.2566303e-05 3.8632799e-05 -3.3054735e-13        9 
  191900 8.5151649e-06 2.485375e-05 1.1353553e-05 3.6207304e-05 -7.5944102e-13        9 
  191950 7.9537852e-06 2.4105246e-05 1.0605047e-05 3.4710293e-05 -1.023758e-12        9 
  192000 7.6613029e-06 2.3715271e-05 1.021507e-05 3.3930342e-05 -1.1611144e-12        9 
  192050 7.6010482e-06 2.3634932e-05 1.0134731e-05 3.3769663e-05 -1.189029e-12        9 
  192100 7.7656974e-06 2.3854464e-05 1.0354263e-05 3.4208727e-05 -1.1111356e-12        9 
  192150 8.1748301e-06 2.4399972e-05 1.0899774e-05 3.5299746e-05 -9.1836878e-13        9 
  192200 8.8816113e-06 2.5342344e-05 1.1842148e-05 3.7184492e-05 -5.854625e-13        9 
  192250 9.9934127e-06 2.6824739e-05 1.332455e-05 4.0149289e-05 -6.201702e-14        9 
  192300 1.1724175e-05 2.9132407e-05 1.5632233e-05 4.476464e-05 7.5286868e-13        9 
  192350 1.454011e-05 3.2886949e-05 1.9386813e-05 5.2273763e-05 2.0790264e-12        9 
  192400 1.9666024e-05 3.9721372e-05 2.6221366e-05 6.5942738e-05 4.4938382e-12        9 
  192450 3.1763879e-05 5.5851023e-05 4.2351839e-05 9.8202862e-05 1.0196093e-11        9 
  192500 0.00010333148 0.0001512435 0.00013777531 0.00028901881 4.3938669e-11        9 
  192550 5.1237654e-05 8.1812111e-05 6.8316872e-05 0.00015012898 1.9350239e-11        9 
  192600 2.4976241e-05 4.680141e-05 3.3301655e-05 8.0103065e-05 6.9765925e-12        9 
  192650 1.704327e-05 3.6224445e-05 2.272436e-05 5.8948806e-05 3.2457024e-12        9 
  192700 1.3175056e-05 3.1066899e-05 1.7566742e-05 4.8633641e-05 1.4293262e-12        9 
  192750 1.0923799e-05 2.8065247e-05 1.4565065e-05 4.2630312e-05 3.7395292e-13        9 
  192800 9.5075536e-06 2.617693e-05 1.2676738e-05 3.8853669e-05 -2.8896803e-13        9 
  192850 8.5988786e-06 2.4965369e-05 1.1465171e-05 3.643054e-05 -7.1379879e-13        9 
  192900 8.0399268e-06 2.4220102e-05 1.0719902e-05 3.4940004e-05 -9.7475294e-13        9 
  192950 7.750673e-06 2.3834431e-05 1.0334231e-05 3.4168662e-05 -1.1094625e-12        9 
  193000 7.693997e-06 2.3758864e-05 1.0258663e-05 3.4017526e-05 -1.1355068e-12        9 
  193050 7.8622268e-06 2.3983169e-05 1.0482969e-05 3.4466138e-05 -1.0567695e-12        9 
  193100 8.2745783e-06 2.453297e-05 1.1032771e-05 3.5565741e-05 -8.6400779e-13        9 
  193150 8.9837078e-06 2.5478472e-05 1.1978277e-05 3.745675e-05 -5.3285942e-13        9 
  193200 1.0096091e-05 2.6961644e-05 1.3461455e-05 4.0423099e-05 -1.3560911e-14        9 
  193250 1.1823768e-05 2.9265199e-05 1.5765024e-05 4.5030223e-05 7.9297334e-13        9 
  193300 1.4628041e-05 3.3004192e-05 1.9504055e-05 5.2508247e-05 2.1024115e-12        9 
  193350 1.9716978e-05 3.9789314e-05 2.6289304e-05 6.6078619e-05 4.4796623e-12        9 
  193400 3.1657547e-05 5.5709275e-05 4.2210063e-05 9.7919338e-05 1.0060329e-11        9 
  193450 0.0001004797 0.00014744257 0.00013397293 0.0002814155 4.2233108e-11        9 
  193500 5.2144071e-05 8.3020435e-05 6.9525428e-05 0.00015254586 1.960772e-11        9 
  193550 2.5299439e-05 4.7232331e-05 3.3732585e-05 8.0964916e-05 7.0677754e-12        9 
  193600 1.7284428e-05 3.6545987e-05 2.3045904e-05 5.9591891e-05 3.3303328e-12        9 
  193650 1.3392821e-05 3.1357252e-05 1.7857095e-05 4.9214347e-05 1.5184009e-12        9 
  193700 1.1134163e-05 2.8345732e-05 1.484555e-05 4.3191282e-05   4.6855e-13        9 
  193750 9.7166739e-06 2.6455757e-05 1.2955565e-05 3.9411323e-05 -1.8954602e-13        9 
  193800 8.8095997e-06 2.524633e-05 1.1746133e-05 3.6992463e-05 -6.1004089e-13        9 
  193850 8.2536865e-06 2.4505115e-05 1.1004915e-05 3.551003e-05 -8.6741237e-13        9 
  193900 7.9681933e-06 2.4124458e-05 1.0624258e-05 3.4748716e-05 -9.9929262e-13        9 
  193950 7.9155598e-06 2.4054281e-05 1.055408e-05 3.460836e-05 -1.0233163e-12        9 
  194000 8.0877689e-06 2.4283892e-05 1.0783692e-05 3.5067584e-05 -9.4342675e-13        9 
  194050 8.5036729e-06 2.4838429e-05 1.1338231e-05 3.617666e-05 -7.5067478e-13        9 
  194100 9.2154204e-06 2.5787423e-05 1.2287227e-05 3.807465e-05 -4.2109795e-13        9 
  194150 1.0328598e-05 2.7271653e-05 1.3771465e-05 4.1043118e-05 9.4174811e-14        9 
  194200 1.2053377e-05 2.9571344e-05 1.6071169e-05 4.5642513e-05 8.9257186e-13        9 
  194250 1.4846267e-05 3.329516e-05 1.9795022e-05 5.3090182e-05 2.1857083e-12        9 
  194300 1.9899138e-05 4.0032197e-05 2.6532184e-05 6.656438e-05 4.5262447e-12        9 
  194350 3.1688139e-05 5.5750091e-05 4.2250853e-05 9.8000943e-05 9.9896563e-12        9 
  194400 9.7977422e-05 0.00014410767 0.00013063656 0.00027474423 4.0717831e-11        9 
  194450 5.3182459e-05 8.440471e-05 7.0909945e-05 0.00015531466 1.992394e-11        9 
  194500 2.5747025e-05 4.7829103e-05 3.4329367e-05 8.215847e-05 7.2152422e-12        9 
  194550 1.7649774e-05 3.7033114e-05 2.3533032e-05 6.0566145e-05 3.4709316e-12        9 
  194600 1.3733983e-05 3.1812134e-05 1.8311977e-05 5.012411e-05 1.6628664e-12        9 
  194650 1.1466659e-05 2.878906e-05 1.5288879e-05 4.4077939e-05 6.1772374e-13        9 
  194700 1.0046275e-05 2.6895225e-05 1.3395033e-05 4.0290258e-05 -3.6291531e-14        9 
  194750 9.1387869e-06 2.5685246e-05 1.2185049e-05 3.7870296e-05 -4.5355552e-13        9 
  194800 8.5835356e-06 2.4944914e-05 1.1444714e-05 3.6389628e-05 -7.0854291e-13        9 
  194850 8.2990516e-06 2.4565603e-05 1.1065402e-05 3.5631005e-05 -8.389578e-13        9 
  194900 8.2473159e-06 2.4496622e-05 1.0996421e-05 3.5493043e-05 -8.624429e-13        9 
  194950 8.4199448e-06 2.4726793e-05 1.1226593e-05 3.5953386e-05 -7.8295584e-13        9 
  195000 8.8354049e-06 2.5280739e-05 1.178054e-05 3.7061279e-05 -5.920815e-13        9 
  195050 9.545316e-06 2.6227284e-05 1.2727088e-05 3.8954372e-05 -2.6615043e-13        9 
  195100 1.0654362e-05 2.7706006e-05 1.4205816e-05 4.1911822e-05 2.4290662e-13        9 
  195150 1.2370849e-05 2.999464e-05 1.6494465e-05 4.6489105e-05 1.0308043e-12        9 
  195200 1.5146569e-05 3.3695564e-05 2.0195426e-05 5.389099e-05 2.3052299e-12        9 
  195250 2.0157597e-05 4.0376811e-05 2.6876795e-05 6.7253607e-05 4.6069552e-12        9 
  195300 3.1792593e-05 5.5889386e-05 4.2390123e-05 9.827951e-05 9.9538434e-12        9 
  195350 9.5716959e-05 0.00014109517 0.00012762261 0.00026871778 3.9337257e-11        9 
  195400  5.42816e-05 8.5869979e-05 7.2375467e-05 0.00015824545 2.0261158e-11        9 
  195450 2.6235387e-05 4.8480243e-05 3.4980517e-05 8.346076e-05 7.3784656e-12        9 
  195500 1.8046336e-05 3.7561861e-05 2.4061781e-05 6.1623642e-05 3.6232669e-12        9 
  195550 1.4096143e-05 3.2295013e-05 1.8794857e-05 5.108987e-05 1.8144298e-12        9 
  195600 1.1809141e-05 2.9245703e-05 1.5745522e-05 4.4991225e-05 7.6893812e-13        9 
  195650 1.0374099e-05 2.7332324e-05 1.3832132e-05 4.1164456e-05 1.1359791e-13        9 
  195700 9.4537226e-06 2.6105161e-05 1.2604963e-05 3.8710124e-05 -3.0615808e-13        9 
  195750 8.885976e-06 2.5348168e-05 1.1847968e-05 3.7196136e-05 -5.6479209e-13        9 
  195800 8.5886939e-06 2.4951793e-05 1.1451592e-05 3.6403385e-05 -7.000255e-13        9 
  195850 8.5234349e-06 2.4864781e-05 1.136458e-05 3.6229361e-05 -7.2943195e-13        9 
  195900 8.6814917e-06 2.5075523e-05 1.1575322e-05 3.6650845e-05 -6.5730381e-13        9 
  195950 9.080997e-06 2.5608195e-05 1.2107996e-05 3.7716191e-05 -4.7532732e-13        9 
  196000 9.7731033e-06   2.6531e-05 1.3030804e-05 3.9561805e-05 -1.6024251e-13        9 
  196050 1.0861668e-05 2.7982413e-05 1.4482224e-05 4.2464637e-05 3.3523262e-13        9 
  196100 1.2553231e-05 3.0237816e-05 1.6737641e-05 4.6975457e-05 1.1052044e-12        9 
  196150 1.5295032e-05 3.3893515e-05 2.0393376e-05 5.4286891e-05 2.3535468e-12        9 
  196200 2.0247802e-05 4.0497088e-05 2.699707e-05 6.7494158e-05 4.6095163e-12        9 
  196250 3.1715749e-05 5.5786952e-05 4.2287665e-05 9.8074617e-05 9.8356069e-12        9 
  196300 9.3413489e-05 0.00013802528 0.00012455132 0.0002625766 3.7927434e-11        9 
  196350 5.5170674e-05 8.7055146e-05 7.3560898e-05 0.00016061604 2.0493561e-11        9 
  196400 2.6485484e-05 4.8813696e-05 3.5313979e-05 8.4127675e-05 7.4307208e-12        9 
  196450 1.8188704e-05 3.7751685e-05 2.4251606e-05 6.2003291e-05 3.657724e-12        9 
  196500 1.4188713e-05 3.241844e-05 1.8918285e-05 5.1336725e-05 1.8412903e-12        9 
  196550 1.1867169e-05 2.9323074e-05 1.5822892e-05 4.5145966e-05 7.8882098e-13        9 
  196600 1.0403306e-05 2.7371267e-05 1.3871075e-05 4.1242342e-05 1.2586985e-13        9 
  196650 9.4567304e-06 2.6109171e-05 1.2608974e-05 3.8718145e-05 -3.0225226e-13        9 
  196700 8.8641598e-06 2.5319079e-05 1.181888e-05 3.7137959e-05 -5.6995625e-13        9 
  196750 8.5428491e-06 2.4890666e-05 1.1390465e-05 3.6281132e-05 -7.1490652e-13        9 
  196800 8.4540384e-06 2.4772252e-05 1.1272051e-05 3.6044304e-05 -7.5478814e-13        9 
  196850 8.5887887e-06 2.4951919e-05 1.1451718e-05 3.6403637e-05 -6.9353145e-13        9 
  196900 8.9649759e-06  2.54535e-05 1.1953301e-05 3.7406801e-05 -5.2336785e-13        9 
  196950 9.6333474e-06 2.6344659e-05 1.2844463e-05 3.9189122e-05 -2.2171412e-13        9 
  197000 1.0696975e-05 2.7762823e-05 1.4262634e-05 4.2025457e-05 2.5758504e-13        9 
  197050 1.2360655e-05 2.9981048e-05 1.6480873e-05 4.6461921e-05 1.0063329e-12        9 
  197100 1.5067065e-05 3.358956e-05 2.008942e-05 5.3678979e-05 2.2230739e-12        9 
  197150 1.9961603e-05 4.0115493e-05 2.6615471e-05 6.6730964e-05 4.422362e-12        9 
  197200 3.1265082e-05 5.5186085e-05 4.1686776e-05 9.6872861e-05 9.4981737e-12        9 
  197250 9.0845856e-05 0.00013460312 0.00012112781 0.00025573093 3.6251509e-11        9 
  197300 5.5715978e-05 8.7781934e-05 7.4287971e-05 0.0001620699 2.0459061e-11        9 
  197350 2.637778e-05 4.867008e-05 3.5170373e-05 8.3840453e-05 7.2882829e-12        9 
  197400 1.7981109e-05 3.7474889e-05 2.3974812e-05 6.1449702e-05 3.5207011e-12        9 
  197450 1.3940991e-05 3.2088144e-05 1.8587989e-05 5.0676132e-05 1.7089786e-12        9 
  197500 1.159572e-05 2.8961142e-05 1.5460961e-05 4.4422102e-05 6.5819752e-13        9 
  197550 1.0114896e-05 2.698672e-05 1.3486528e-05 4.0473248e-05 -4.5840447e-15        9 
  197600 9.1549452e-06 2.5706791e-05 1.2206594e-05 3.7913384e-05 -4.3380179e-13        9 
  197650 8.551243e-06 2.4901857e-05 1.1401657e-05 3.6303514e-05 -7.0337315e-13        9 
  197700 8.2203465e-06 2.4460663e-05 1.0960462e-05 3.5421125e-05 -8.5078669e-13        9 
  197750 8.1230422e-06 2.4330924e-05 1.0830723e-05 3.5161647e-05 -8.9377191e-13        9 
  197800 8.2500062e-06 2.4500209e-05 1.1000008e-05 3.5500217e-05 -8.3665726e-13        9 
  197850 8.6186815e-06 2.4991774e-05 1.1491575e-05 3.648335e-05 -6.7181808e-13        9 
  197900 9.279195e-06 2.5872456e-05 1.237226e-05 3.8244716e-05 -3.7707696e-13        9 
  197950 1.033354e-05 2.7278243e-05 1.3778054e-05 4.1056296e-05 9.2837001e-14        9 
  198000 1.1984282e-05 2.9479218e-05 1.5979043e-05 4.5458261e-05 8.2783676e-13        9 
  198050 1.4668515e-05 3.305816e-05 1.955802e-05 5.261618e-05 2.0220858e-12        9 
  198100 1.9513288e-05 3.9517741e-05 2.6017717e-05 6.5535458e-05 4.1763061e-12        9 
  198150 3.0641536e-05 5.4354717e-05 4.0855381e-05 9.5210097e-05 9.122858e-12        9 
  198200 8.7859866e-05 0.00013062331 0.00011714649 0.0002477698 3.455759e-11        9 
  198250 5.6337676e-05 8.8610502e-05 7.5116902e-05 0.0001637274 2.0533142e-11        9 
  198300 2.6216818e-05 4.8455452e-05 3.4955757e-05 8.3411209e-05 7.1463389e-12        9 
  198350 1.7719335e-05 3.7125855e-05 2.362578e-05 6.0751634e-05 3.3712137e-12        9 
  198400 1.3649287e-05 3.1699204e-05 1.819905e-05 4.9898254e-05 1.5639222e-12        9 
  198450 1.1292776e-05 2.8557216e-05 1.5057035e-05 4.3614251e-05 5.1795994e-13        9 
  198500 9.8078359e-06 2.6577306e-05 1.3077115e-05 3.9654421e-05 -1.4070626e-13        9 
  198550 8.8470411e-06 2.5296252e-05 1.1796055e-05 3.7092306e-05 -5.6652405e-13        9 
  198600 8.2441159e-06 2.4492354e-05 1.0992155e-05 3.5484508e-05 -8.3349255e-13        9 
  198650 7.9147514e-06 2.4053203e-05 1.0553002e-05 3.4606204e-05 -9.7907417e-13        9 
  198700 7.8191765e-06 2.392577e-05 1.0425569e-05 3.4351338e-05 -1.0212236e-12        9 
  198750 7.9476027e-06 2.4097004e-05 1.0596804e-05 3.4693808e-05 -9.639946e-13        9 
  198800 8.3169481e-06 2.4589463e-05 1.1089264e-05 3.5678727e-05 -8.0020516e-13        9 
  198850 8.9765567e-06 2.5468938e-05 1.1968742e-05 3.743768e-05 -5.0814789e-13        9 
  198900 1.0026992e-05 2.6869512e-05 1.3369322e-05 4.0238834e-05 -4.3407204e-14        9 
  198950 1.1667753e-05 2.905718e-05 1.5557004e-05 4.4614184e-05 6.8203448e-13        9 
  199000 1.4328097e-05 3.2604271e-05 1.9104129e-05  5.17084e-05 1.8576891e-12        9 
  199050 1.9109105e-05 3.8978836e-05 2.5478807e-05 6.4457643e-05 3.9697154e-12        9 
  199100 2.9995227e-05 5.3493009e-05 3.9993636e-05 9.3486645e-05 8.7776837e-12        9 
  199150 8.3933341e-05 0.00012539024 0.00011191112 0.00023730136 3.2602314e-11        9 
  199200 5.7654196e-05 9.0365269e-05 7.6872262e-05 0.00016723753 2.0986782e-11        9 
  199250 2.6270633e-05 4.8527185e-05 3.5027511e-05 8.3554696e-05 7.1266972e-12        9 
  199300 1.7612776e-05 3.6983773e-05 2.3483702e-05 6.0467475e-05 3.3042132e-12        9 
  199350 1.3495008e-05 3.1493497e-05 1.7993344e-05 4.9486841e-05 1.4867749e-12        9 
  199400 1.1120177e-05 2.8327083e-05 1.4826903e-05 4.3153986e-05 4.3889671e-13        9 
  199450 9.6280326e-06 2.6337568e-05 1.2837377e-05 3.9174945e-05 -2.192182e-13        9 
  199500 8.6651825e-06 2.5053773e-05 1.1553577e-05 3.660735e-05 -6.436505e-13        9 
  199550 8.0628966e-06 2.4250728e-05 1.0750529e-05 3.5001257e-05 -9.0898344e-13        9 
  199600 7.7356651e-06 2.3814421e-05 1.031422e-05 3.4128641e-05 -1.0530925e-12        9 
  199650 7.6430142e-06 2.3690886e-05 1.0190686e-05 3.3881572e-05 -1.093589e-12        9 
  199700 7.7746369e-06 2.3866383e-05 1.0366183e-05 3.4232566e-05 -1.0352584e-12        9 
  199750 8.1469442e-06 2.4362791e-05 1.0862592e-05 3.5225384e-05 -8.7110134e-13        9 
  199800 8.8086223e-06 2.5245026e-05 1.174483e-05 3.6989855e-05 -5.7966879e-13        9 
  199850 9.8591523e-06 2.6645726e-05 1.3145536e-05 3.9791262e-05 -1.1709888e-13        9 
  199900 1.1495851e-05 2.8827978e-05 1.5327802e-05 4.415578e-05 6.0328382e-13        9 
  199950 1.4142544e-05 3.2356869e-05 1.8856726e-05 5.1213595e-05 1.7678854e-12        9 
  200000 1.8882502e-05 3.8676702e-05 2.517667e-05 6.3853372e-05 3.852948e-12        9 
Loop time of 1.01861 on 4 procs for 200000 steps with 9 atoms

Pair  time (%) = 0.0310183 (3.04516)
Neigh time (%) = 0.0176213 (1.72994)
Comm  time (%) = 0.465794 (45.7284)
Outpt time (%) = 0.183509 (18.0156)
Other time (%) = 0.320668 (31.4809)

Nlocal:    2.25 ave 6 max 0 min
Histogram: 2 0 0 0 0 1 0 0 0 1
Nghost:    2.25 ave 6 max 0 min
Histogram: 2 0 0 0 0 1 0 0 0 1
Neighs:    1.75 ave 4 max 0 min
Histogram: 2 0 0 0 0 0 0 1 0 1

Total # of neighbors = 7
Ave neighs/atom = 0.777778
Neighbor list builds = 13766
Dangerous builds = 6147



