H2O

 9 atoms
 9 atom types

  0 50 xlo xhi
  0 50 ylo yhi
  0 50 zlo zhi

 Atoms # atom-ID.molecule-ID.atom-type.q.x.y.z

 1 1     1	        0       0    0
 2 2     1.651E-007     0.38    0    0
 3 3     0.00000243     0.72    0    0
 4 4     2.9868E-006    1       0    0
 5 5     3.20925E-007   1.52    0    0
 6 6     0.0009495      5.2     0    0
 7 7     0.0002844      9.53    0    0 
 8 8     0.0000443      19.19   0    0
 9 9     0.0000512      30      0    0
 
 Masses
 
 1 1
 2 1
 3 1
 4 1
 5 1
 6 1
 7 1
 8 1
 9 1
