ITEM: TIMESTEP
0
ITEM: NUMBER OF ATOMS
9
ITEM: BOX BOUNDS mm mm mm
-0.005 50
-0.005 50
-0.005 50
ITEM: ATOMS id type xs ys zs
1 1 9.999e-05 9.999e-05 9.999e-05
2 2 0.00769923 9.999e-05 9.999e-05
3 3 0.0144986 9.999e-05 9.999e-05
4 4 0.020098 9.999e-05 9.999e-05
5 5 0.030497 9.999e-05 9.999e-05
6 6 0.10409 9.999e-05 9.999e-05
7 7 0.190681 9.999e-05 9.999e-05
8 8 0.383862 9.999e-05 9.999e-05
9 9 0.60004 9.999e-05 9.999e-05
ITEM: TIMESTEP
50
ITEM: NUMBER OF ATOMS
9
ITEM: BOX BOUNDS mm mm mm
-0.005 50
-0.005 50
-0.005 50
ITEM: ATOMS id type xs ys zs
1 1 9.999e-05 9.999e-05 9.999e-05
2 2 0.00767319 9.999e-05 0.00509419
3 3 0.0143844 9.999e-05 0.00508654
4 4 0.0200244 9.999e-05 0.00509342
5 5 0.0304935 9.999e-05 0.0050993
6 6 0.10321 9.999e-05 0.00508535
7 7 0.190602 9.999e-05 0.00509881
8 8 0.383859 9.999e-05 0.00509948
9 9 0.600039 9.999e-05 0.00509949
ITEM: TIMESTEP
100
ITEM: NUMBER OF ATOMS
9
ITEM: BOX BOUNDS mm mm mm
-0.005 50
-0.005 50
-0.005 50
ITEM: ATOMS id type xs ys zs
1 1 9.999e-05 9.999e-05 9.999e-05
2 2 0.00761286 9.999e-05 0.0100687
3 3 0.0140725 9.999e-05 0.0100071
4 4 0.0198148 9.999e-05 0.0100536
5 5 0.0304834 9.999e-05 0.0100975
6 6 0.100548 9.999e-05 0.00998382
7 7 0.190366 9.999e-05 0.0100935
8 8 0.38385 9.999e-05 0.0100989
9 9 0.600034 9.999e-05 0.010099
ITEM: TIMESTEP
150
ITEM: NUMBER OF ATOMS
9
ITEM: BOX BOUNDS mm mm mm
-0.005 50
-0.005 50
-0.005 50
ITEM: ATOMS id type xs ys zs
1 1 9.999e-05 9.999e-05 9.999e-05
2 2 0.00753867 9.999e-05 0.0150264
3 3 0.0136243 9.999e-05 0.0148346
4 4 0.0194961 9.999e-05 0.01496
5 5 0.0304674 9.999e-05 0.0150938
6 6 0.0960264 9.999e-05 0.0146978
7 7 0.189974 9.999e-05 0.01508
8 8 0.383834 9.999e-05 0.0150981
9 9 0.600027 9.999e-05 0.0150984
ITEM: TIMESTEP
200
ITEM: NUMBER OF ATOMS
9
ITEM: BOX BOUNDS mm mm mm
-0.005 50
-0.005 50
-0.005 50
ITEM: ATOMS id type xs ys zs
1 1 9.999e-05 9.999e-05 9.999e-05
2 2 0.00745883 9.999e-05 0.0199731
3 3 0.0130923 9.999e-05 0.0195734
4 4 0.0190975 9.999e-05 0.0198062
5 5 0.0304464 9.999e-05 0.0200877
6 6 0.0895047 9.999e-05 0.0191045
7 7 0.189424 9.999e-05 0.0200542
8 8 0.383813 9.999e-05 0.0200972
9 9 0.600017 9.999e-05 0.0200977
ITEM: TIMESTEP
250
ITEM: NUMBER OF ATOMS
9
ITEM: BOX BOUNDS mm mm mm
-0.005 50
-0.005 50
-0.005 50
ITEM: ATOMS id type xs ys zs
1 1 9.999e-05 9.999e-05 9.999e-05
2 2 0.00737631 9.999e-05 0.0249129
3 3 0.0125099 9.999e-05 0.0242383
4 4 0.0186429 9.999e-05 0.0245954
5 5 0.0304213 9.999e-05 0.0250789
6 6 0.080749 9.999e-05 0.0230309
7 7 0.188717 9.999e-05 0.0250119
8 8 0.383786 9.999e-05 0.0250959
9 9 0.600004 9.999e-05 0.025097
ITEM: TIMESTEP
300
ITEM: NUMBER OF ATOMS
9
ITEM: BOX BOUNDS mm mm mm
-0.005 50
-0.005 50
-0.005 50
ITEM: ATOMS id type xs ys zs
1 1 9.999e-05 9.999e-05 9.999e-05
2 2 0.00729235 9.999e-05 0.0298478
3 3 0.0118967 9.999e-05 0.0288443
4 4 0.0181498 9.999e-05 0.0293341
5 5 0.0303929 9.999e-05 0.0300675
6 6 0.0693745 9.999e-05 0.0262016
7 7 0.187855 9.999e-05 0.029949
8 8 0.383753 9.999e-05 0.0300942
9 9 0.599989 9.999e-05 0.0300961
ITEM: TIMESTEP
350
ITEM: NUMBER OF ATOMS
9
ITEM: BOX BOUNDS mm mm mm
-0.005 50
-0.005 50
-0.005 50
ITEM: ATOMS id type xs ys zs
1 1 9.999e-05 9.999e-05 9.999e-05
2 2 0.00720755 9.999e-05 0.0347793
3 3 0.0112641 9.999e-05 0.0334034
4 4 0.0176297 9.999e-05 0.0340297
5 5 0.0303621 9.999e-05 0.0350535
6 6 0.0547113 9.999e-05 0.028105
7 7 0.186837 9.999e-05 0.0348614
8 8 0.383714 9.999e-05 0.035092
9 9 0.59997 9.999e-05 0.0350951
ITEM: TIMESTEP
400
ITEM: NUMBER OF ATOMS
9
ITEM: BOX BOUNDS mm mm mm
-0.005 50
-0.005 50
-0.005 50
ITEM: ATOMS id type xs ys zs
1 1 9.999e-05 9.999e-05 9.999e-05
2 2 0.00712221 9.999e-05 0.0397082
3 3 0.0106188 9.999e-05 0.0379251
4 4 0.0170907 9.999e-05 0.0386889
5 5 0.0303293 9.999e-05 0.0400374
6 6 0.0354297 9.999e-05 0.0275355
7 7 0.185663 9.999e-05 0.039745
8 8 0.383669 9.999e-05 0.0400893
9 9 0.599949 9.999e-05 0.040094
ITEM: TIMESTEP
450
ITEM: NUMBER OF ATOMS
9
ITEM: BOX BOUNDS mm mm mm
-0.005 50
-0.005 50
-0.005 50
ITEM: ATOMS id type xs ys zs
1 1 9.999e-05 9.999e-05 9.999e-05
2 2 0.00703651 9.999e-05 0.044635
3 3 0.00996495 9.999e-05 0.0424162
4 4 0.0165382 9.999e-05 0.0433171
5 5 0.0302949 9.999e-05 0.0450191
6 6 0.00811197 9.999e-05 0.0196777
7 7 0.184335 9.999e-05 0.0445955
8 8 0.383618 9.999e-05 0.045086
9 9 0.599925 9.999e-05 0.0450926
ITEM: TIMESTEP
500
ITEM: NUMBER OF ATOMS
9
ITEM: BOX BOUNDS mm mm mm
-0.005 50
-0.005 50
-0.814852 50
ITEM: ATOMS id type xs ys zs
1 1 9.999e-05 9.999e-05 0.0160357
2 2 0.00695056 9.999e-05 0.0647077
3 3 0.00930523 9.999e-05 0.0620722
4 4 0.0159755 9.999e-05 0.0630927
5 5 0.0302594 9.999e-05 0.0651395
6 6 0.00740343 9.999e-05 -0.00293836
7 7 0.182853 9.999e-05 0.0645587
8 8 0.383561 9.999e-05 0.0652212
9 9 0.599898 9.999e-05 0.06523
ITEM: TIMESTEP
550
ITEM: NUMBER OF ATOMS
9
ITEM: BOX BOUNDS mm mm mm
-0.005 50
-0.005 50
-1.35906 50
ITEM: ATOMS id type xs ys zs
1 1 9.999e-05 9.999e-05 0.0264619
2 2 0.00686443 9.999e-05 0.0794123
3 3 0.00864133 9.999e-05 0.0763383
4 4 0.0154055 9.999e-05 0.0774791
5 5 0.0302228 9.999e-05 0.0798925
6 6 0.0348934 9.999e-05 -0.000356523
7 7 0.181217 9.999e-05 0.0791169
8 8 0.383499 9.999e-05 0.0799898
9 9 0.599868 9.999e-05 0.0800014
ITEM: TIMESTEP
600
ITEM: NUMBER OF ATOMS
9
ITEM: BOX BOUNDS mm mm mm
-0.005 50
-0.005 50
-1.42343 50
ITEM: ATOMS id type xs ys zs
1 1 9.999e-05 9.999e-05 0.0276805
2 2 0.00677816 9.999e-05 0.0853516
3 3 0.00797445 9.999e-05 0.0817993
4 4 0.0148297 9.999e-05 0.0830683
5 5 0.0301854 9.999e-05 0.0858837
6 6 0.0542771 9.999e-05 0.000190824
7 7 0.179429 9.999e-05 0.0848655
8 8 0.38343 9.999e-05 0.0859979
9 9 0.599835 9.999e-05 0.0860131
ITEM: TIMESTEP
650
ITEM: NUMBER OF ATOMS
9
ITEM: BOX BOUNDS mm mm mm
-0.005 50
-0.005 50
-1.34086 50
ITEM: ATOMS id type xs ys zs
1 1 9.999e-05 9.999e-05 0.0261168
2 2 0.00669178 9.999e-05 0.0886744
3 3 0.0073054 9.999e-05 0.0846196
4 4 0.0142496 9.999e-05 0.086019
5 5 0.0301474 9.999e-05 0.0892598
6 6 0.0690179 9.999e-05 0.000341863
7 7 0.177489 9.999e-05 0.0879485
8 8 0.383356 9.999e-05 0.0893916
9 9 0.5998 9.999e-05 0.0894108
ITEM: TIMESTEP
700
ITEM: NUMBER OF ATOMS
9
ITEM: BOX BOUNDS mm mm mm
-0.005 50
-0.005 50
-1.18378 50
ITEM: ATOMS id type xs ys zs
1 1 9.999e-05 9.999e-05 0.023128
2 2 0.00660533 9.999e-05 0.0906854
3 3 0.00663476 9.999e-05 0.0861075
4 4 0.0136661 9.999e-05 0.0876386
5 5 0.0301089 9.999e-05 0.0913246
6 6 0.0804591 9.999e-05 0.000304376
7 7 0.175398 9.999e-05 0.0896653
8 8 0.383275 9.999e-05 0.0914745
9 9 0.599762 9.999e-05 0.0914985
ITEM: TIMESTEP
750
ITEM: NUMBER OF ATOMS
9
ITEM: BOX BOUNDS mm mm mm
-0.005 50
-0.005 50
-1.00003 50
ITEM: ATOMS id type xs ys zs
1 1 9.999e-05 9.999e-05 0.0196085
2 2 0.00651881 9.999e-05 0.0922337
3 3 0.00596295 9.999e-05 0.0871163
4 4 0.01308 9.999e-05 0.0887794
5 5 0.0300699 9.999e-05 0.0929272
6 6 0.0892756 9.999e-05 0.000503419
7 7 0.173156 9.999e-05 0.0908604
8 8 0.383189 9.999e-05 0.0930952
9 9 0.599721 9.999e-05 0.0931248
ITEM: TIMESTEP
800
ITEM: NUMBER OF ATOMS
9
ITEM: BOX BOUNDS mm mm mm
-0.005 50
-0.005 50
-0.841694 50
ITEM: ATOMS id type xs ys zs
1 1 9.999e-05 9.999e-05 0.0165552
2 2 0.00643224 9.999e-05 0.0942455
3 3 0.00529028 9.999e-05 0.0885781
4 4 0.0124917 9.999e-05 0.090372
5 5 0.0300306 9.999e-05 0.0949929
6 6 0.0958544 9.999e-05 0.00168978
7 7 0.170766 9.999e-05 0.092456
8 8 0.383098 9.999e-05 0.0951791
9 9 0.599677 9.999e-05 0.095215
ITEM: TIMESTEP
850
ITEM: NUMBER OF ATOMS
9
ITEM: BOX BOUNDS mm mm mm
-0.005 50
-0.005 50
-0.526243 50
ITEM: ATOMS id type xs ys zs
1 1 9.999e-05 9.999e-05 0.0104152
2 2 0.00634562 9.999e-05 0.0934591
3 3 0.00461697 9.999e-05 0.0872105
4 4 0.0119018 9.999e-05 0.0891409
5 5 0.0299909 9.999e-05 0.0942631
6 6 0.100431 9.999e-05 9.89585e-05
7 7 0.168228 9.999e-05 0.0911782
8 8 0.383 9.999e-05 0.0944676
9 9 0.59963 9.999e-05 0.0945109
ITEM: TIMESTEP
900
ITEM: NUMBER OF ATOMS
9
ITEM: BOX BOUNDS mm mm mm
-0.005 50
-0.005 50
-0.400094 50
ITEM: ATOMS id type xs ys zs
1 1 9.999e-05 9.999e-05 0.00793835
2 2 0.00625898 9.999e-05 0.0960703
3 3 0.00394319 9.999e-05 0.0892514
4 4 0.0113105 9.999e-05 0.0913111
5 5 0.029951 9.999e-05 0.096928
6 6 0.103146 9.999e-05 0.00244349
7 7 0.165543 9.999e-05 0.0932318
8 8 0.382897 9.999e-05 0.0971499
9 9 0.599581 9.999e-05 0.0972012
ITEM: TIMESTEP
950
ITEM: NUMBER OF ATOMS
9
ITEM: BOX BOUNDS mm mm mm
-0.005 50
-0.005 50
-0.112778 50
ITEM: ATOMS id type xs ys zs
1 1 9.999e-05 9.999e-05 0.00225047
2 2 0.0061723 9.999e-05 0.0957956
3 3 0.00326908 9.999e-05 0.0883729
4 4 0.0107181 9.999e-05 0.0905685
5 5 0.0299109 9.999e-05 0.0967099
6 6 0.104077 9.999e-05 0.00169586
7 7 0.162713 9.999e-05 0.0923106
8 8 0.382789 9.999e-05 0.0969494
9 9 0.599529 9.999e-05 0.0970099
ITEM: TIMESTEP
1000
ITEM: NUMBER OF ATOMS
9
ITEM: BOX BOUNDS mm mm mm
-0.005 50
-0.005 50
-0.005 50
ITEM: ATOMS id type xs ys zs
1 1 9.999e-05 9.999e-05 9.999e-05
2 2 0.0060856 9.999e-05 0.0987648
3 3 0.00259473 9.999e-05 0.0907541
4 4 0.0101248 9.999e-05 0.0930779
5 5 0.0298706 9.999e-05 0.0997326
6 6 0.103249 9.999e-05 0.00453647
7 7 0.159739 9.999e-05 0.0945608
8 8 0.382675 9.999e-05 0.0999882
9 9 0.599474 9.999e-05 0.100059
ITEM: TIMESTEP
1050
ITEM: NUMBER OF ATOMS
9
ITEM: BOX BOUNDS mm mm mm
-0.005 50
-0.005 50
-0.005 50
ITEM: ATOMS id type xs ys zs
1 1 9.999e-05 9.999e-05 9.999e-05
2 2 0.00599888 9.999e-05 0.103682
3 3 0.00192022 9.999e-05 0.0950942
4 4 0.00953079 9.999e-05 0.0975405
5 5 0.02983 9.999e-05 0.104702
6 6 0.100637 9.999e-05 0.00945181
7 7 0.156622 9.999e-05 0.0986829
8 8 0.382555 9.999e-05 0.104972
9 9 0.599416 9.999e-05 0.105053
ITEM: TIMESTEP
1100
ITEM: NUMBER OF ATOMS
9
ITEM: BOX BOUNDS mm mm mm
-0.005 50
-0.005 50
-0.005 50
ITEM: ATOMS id type xs ys zs
1 1 9.999e-05 9.999e-05 9.999e-05
2 2 0.00591215 9.999e-05 0.1086
3 3 0.00124562 9.999e-05 0.0994289
4 4 0.00893616 9.999e-05 0.101997
5 5 0.0297894 9.999e-05 0.10967
6 6 0.0961661 9.999e-05 0.0141932
7 7 0.153364 9.999e-05 0.102716
8 8 0.38243 9.999e-05 0.109954
9 9 0.599356 9.999e-05 0.110047
ITEM: TIMESTEP
1150
ITEM: NUMBER OF ATOMS
9
ITEM: BOX BOUNDS mm mm mm
-0.005 50
-0.005 50
-0.005 50
ITEM: ATOMS id type xs ys zs
1 1 9.999e-05 9.999e-05 9.999e-05
2 2 0.00582539 9.999e-05 0.113517
3 3 0.000570957 9.999e-05 0.103759
4 4 0.00834103 9.999e-05 0.106448
5 5 0.0297486 9.999e-05 0.114638
6 6 0.0896957 9.999e-05 0.0186388
7 7 0.149968 9.999e-05 0.106656
8 8 0.382299 9.999e-05 0.114935
9 9 0.599293 9.999e-05 0.115041
ITEM: TIMESTEP
1200
ITEM: NUMBER OF ATOMS
9
ITEM: BOX BOUNDS mm mm mm
-0.00776428 50
-0.005 50
-0.005 50
ITEM: ATOMS id type xs ys zs
1 1 0.000155262 9.999e-05 9.999e-05
2 2 0.00579359 9.999e-05 0.118434
3 3 -4.84358e-05 9.999e-05 0.108084
4 4 0.00780035 9.999e-05 0.110893
5 5 0.0297613 9.999e-05 0.119606
6 6 0.0810438 9.999e-05 0.0226176
7 7 0.146481 9.999e-05 0.110498
8 8 0.382198 9.999e-05 0.119914
9 9 0.599249 9.999e-05 0.120034
ITEM: TIMESTEP
1250
ITEM: NUMBER OF ATOMS
9
ITEM: BOX BOUNDS mm mm mm
-0.0448747 50
-0.005 50
-0.005 50
ITEM: ATOMS id type xs ys zs
1 1 0.000896689 9.999e-05 9.999e-05
2 2 0.00644413 9.999e-05 0.12335
3 3 1.90167e-05 9.999e-05 0.112405
4 4 0.00794072 9.999e-05 0.115334
5 5 0.0304398 9.999e-05 0.124573
6 6 0.0704164 9.999e-05 0.0258577
7 7 0.143447 9.999e-05 0.114237
8 8 0.382515 9.999e-05 0.124892
9 9 0.599478 9.999e-05 0.125027
ITEM: TIMESTEP
1300
ITEM: NUMBER OF ATOMS
9
ITEM: BOX BOUNDS mm mm mm
-0.0813084 50
-0.005 50
-0.005 50
ITEM: ATOMS id type xs ys zs
1 1 0.00162353 9.999e-05 9.999e-05
2 2 0.00708028 9.999e-05 0.128267
3 3 7.28945e-05 9.999e-05 0.116722
4 4 0.00806721 9.999e-05 0.11977
5 5 0.0311042 9.999e-05 0.12954
6 6 0.0565158 9.999e-05 0.0278558
7 7 0.140274 9.999e-05 0.11787
8 8 0.382818 9.999e-05 0.129867
9 9 0.599698 9.999e-05 0.130019
ITEM: TIMESTEP
1350
ITEM: NUMBER OF ATOMS
9
ITEM: BOX BOUNDS mm mm mm
-0.115041 50
-0.005 50
-0.005 50
ITEM: ATOMS id type xs ys zs
1 1 0.00229553 9.999e-05 9.999e-05
2 2 0.00766201 9.999e-05 0.133183
3 3 7.28478e-05 9.999e-05 0.121036
4 4 0.00813983 9.999e-05 0.124202
5 5 0.0317152 9.999e-05 0.134506
6 6 0.0379938 9.999e-05 0.0274299
7 7 0.136927 9.999e-05 0.121392
8 8 0.383082 9.999e-05 0.134841
9 9 0.599894 9.999e-05 0.13501
ITEM: TIMESTEP
1400
ITEM: NUMBER OF ATOMS
9
ITEM: BOX BOUNDS mm mm mm
-0.14877 50
-0.005 50
-0.005 50
ITEM: ATOMS id type xs ys zs
1 1 0.00296657 9.999e-05 9.999e-05
2 2 0.00824288 9.999e-05 0.138099
3 3 7.28016e-05 9.999e-05 0.125346
4 4 0.00821211 9.999e-05 0.12863
5 5 0.0323253 9.999e-05 0.139472
6 6 0.0115404 9.999e-05 0.0199161
7 7 0.133457 9.999e-05 0.124798
8 8 0.383341 9.999e-05 0.139814
9 9 0.600087 9.999e-05 0.140001
ITEM: TIMESTEP
1450
ITEM: NUMBER OF ATOMS
9
ITEM: BOX BOUNDS mm mm mm
-0.182495 50
-0.005 50
-0.91559 50
ITEM: ATOMS id type xs ys zs
1 1 0.00363663 9.999e-05 0.0179825
2 2 0.0088229 9.999e-05 0.158341
3 3 7.27558e-05 9.999e-05 0.145219
4 4 0.00828407 9.999e-05 0.14856
5 5 0.0329345 9.999e-05 0.159739
6 6 0.0102637 9.999e-05 -0.000701571
7 7 0.129866 9.999e-05 0.143677
8 8 0.383594 9.999e-05 0.160079
9 9 0.600277 9.999e-05 0.160283
ITEM: TIMESTEP
1500
ITEM: NUMBER OF ATOMS
9
ITEM: BOX BOUNDS mm mm mm
-0.216216 50
-0.005 50
-1.38278 50
ITEM: ATOMS id type xs ys zs
1 1 0.00430571 9.999e-05 0.0269114
2 2 0.00940205 9.999e-05 0.170778
3 3 7.27104e-05 9.999e-05 0.15718
4 4 0.00835573 9.999e-05 0.160604
5 5 0.0335427 9.999e-05 0.172212
6 6 0.0384426 9.999e-05 -2.79607e-05
7 7 0.126156 9.999e-05 0.154539
8 8 0.383842 9.999e-05 0.172551
9 9 0.600464 9.999e-05 0.172773
ITEM: TIMESTEP
1550
ITEM: NUMBER OF ATOMS
9
ITEM: BOX BOUNDS mm mm mm
-0.249933 50
-0.005 50
-1.43455 50
ITEM: ATOMS id type xs ys zs
1 1 0.0049738 9.999e-05 0.0278907
2 2 0.00998033 9.999e-05 0.176392
3 3 7.26652e-05 9.999e-05 0.16221
4 4 0.00842711 9.999e-05 0.165744
5 5 0.03415 9.999e-05 0.177872
6 6 0.0584671 9.999e-05 0.000124131
7 7 0.122332 9.999e-05 0.158337
8 8 0.384085 9.999e-05 0.178212
9 9 0.600648 9.999e-05 0.178456
ITEM: TIMESTEP
1600
ITEM: NUMBER OF ATOMS
9
ITEM: BOX BOUNDS mm mm mm
-0.277578 50
-0.005 50
-1.3735 50
ITEM: ATOMS id type xs ys zs
1 1 0.0055209 9.999e-05 0.0267356
2 2 0.0104383 9.999e-05 0.180197
3 3 -4.80577e-05 9.999e-05 0.165399
4 4 0.00837857 9.999e-05 0.16905
5 5 0.0346398 9.999e-05 0.181728
6 6 0.0737165 9.999e-05 0.000600108
7 7 0.118289 9.999e-05 0.160158
8 8 0.384248 9.999e-05 0.182068
9 9 0.600781 9.999e-05 0.182335
ITEM: TIMESTEP
1650
ITEM: NUMBER OF ATOMS
9
ITEM: BOX BOUNDS mm mm mm
-0.31196 50
-0.005 50
-1.23005 50
ITEM: ATOMS id type xs ys zs
1 1 0.00620051 9.999e-05 0.0240104
2 2 0.0110283 9.999e-05 0.1827
3 3 -3.46048e-05 9.999e-05 0.167256
4 4 0.00846285 9.999e-05 0.17103
5 5 0.0352582 9.999e-05 0.184283
6 6 0.085783 9.999e-05 0.000763736
7 7 0.114255 9.999e-05 0.160499
8 8 0.384489 9.999e-05 0.184622
9 9 0.600965 9.999e-05 0.184914
ITEM: TIMESTEP
1700
ITEM: NUMBER OF ATOMS
9
ITEM: BOX BOUNDS mm mm mm
-0.342293 50
-0.005 50
-1.0651 50
ITEM: ATOMS id type xs ys zs
1 1 0.00679931 9.999e-05 0.0208578
2 2 0.0115379 9.999e-05 0.184873
3 3 -0.000101508 9.999e-05 0.168772
4 4 0.00846722 9.999e-05 0.172671
5 5 0.0357982 9.999e-05 0.186509
6 6 0.0951486 9.999e-05 0.00128488
7 7 0.110045 9.999e-05 0.160349
8 8 0.384675 9.999e-05 0.186845
9 9 0.601113 9.999e-05 0.187165
ITEM: TIMESTEP
1750
ITEM: NUMBER OF ATOMS
9
ITEM: BOX BOUNDS mm mm mm
-0.379361 50
-0.005 50
-0.832535 50
ITEM: ATOMS id type xs ys zs
1 1 0.00753009 9.999e-05 0.016378
2 2 0.012179 9.999e-05 0.185978
3 3 -3.45185e-05 9.999e-05 0.169191
4 4 0.00860411 9.999e-05 0.173221
5 5 0.0364664 9.999e-05 0.187671
6 6 0.102399 9.999e-05 0.000982458
7 7 0.105852 9.999e-05 0.158935
8 8 0.384939 9.999e-05 0.188003
9 9 0.601313 9.999e-05 0.188351
ITEM: TIMESTEP
1800
ITEM: NUMBER OF ATOMS
9
ITEM: BOX BOUNDS mm mm mm
-0.409011 50
-0.005 50
-0.630222 50
ITEM: ATOMS id type xs ys zs
1 1 0.00811386 9.999e-05 0.0124475
2 2 0.0126739 9.999e-05 0.18758
3 3 -0.00011468 9.999e-05 0.170109
4 4 0.00859492 9.999e-05 0.174267
5 5 0.0369918 9.999e-05 0.189328
6 6 0.107518 9.999e-05 0.0016017
7 7 0.10143 9.999e-05 0.157861
8 8 0.385107 9.999e-05 0.189653
9 9 0.601451 9.999e-05 0.190031
ITEM: TIMESTEP
1850
ITEM: NUMBER OF ATOMS
9
ITEM: BOX BOUNDS mm mm mm
-0.444047 50
-0.005 50
-0.379356 50
ITEM: ATOMS id type xs ys zs
1 1 0.00880277 9.999e-05 0.00752999
2 2 0.0132736 9.999e-05 0.188412
3 3 -8.78564e-05 9.999e-05 0.170233
4 4 0.00869158 9.999e-05 0.174525
5 5 0.0376194 9.999e-05 0.190218
6 6 0.11088 9.999e-05 0.00146862
7 7 0.0970101 9.999e-05 0.155809
8 8 0.385336 9.999e-05 0.190535
9 9 0.601629 9.999e-05 0.190946
ITEM: TIMESTEP
1900
ITEM: NUMBER OF ATOMS
9
ITEM: BOX BOUNDS mm mm mm
-0.481099 50
-0.005 50
-0.106302 50
ITEM: ATOMS id type xs ys zs
1 1 0.00953028 9.999e-05 0.00212154
2 2 0.0139118 9.999e-05 0.188894
3 3 -2.10447e-05 9.999e-05 0.169989
4 4 0.00882769 9.999e-05 0.174419
5 5 0.0382845 9.999e-05 0.190759
6 6 0.112505 9.999e-05 0.000998527
7 7 0.0925373 9.999e-05 0.153201
8 8 0.385585 9.999e-05 0.191066
9 9 0.60182 9.999e-05 0.191511
ITEM: TIMESTEP
1950
ITEM: NUMBER OF ATOMS
9
ITEM: BOX BOUNDS mm mm mm
-0.517471 50
-0.005 50
-0.005 50
ITEM: ATOMS id type xs ys zs
1 1 0.0102434 9.999e-05 9.999e-05
2 2 0.0145358 9.999e-05 0.192166
3 3 3.23165e-05 9.999e-05 0.172592
4 4 0.00895027 9.999e-05 0.177144
5 5 0.0389356 9.999e-05 0.194083
6 6 0.112373 9.999e-05 0.00397548
7 7 0.0879678 9.999e-05 0.153315
8 8 0.38582 9.999e-05 0.194377
9 9 0.602003 9.999e-05 0.194856
ITEM: TIMESTEP
2000
ITEM: NUMBER OF ATOMS
9
ITEM: BOX BOUNDS mm mm mm
-0.553836 50
-0.005 50
-0.005 50
ITEM: ATOMS id type xs ys zs
1 1 0.0109554 9.999e-05 9.999e-05
2 2 0.0151588 9.999e-05 0.19708
3 3 8.55843e-05 9.999e-05 0.176876
4 4 0.00907258 9.999e-05 0.181541
5 5 0.0395857 9.999e-05 0.199046
6 6 0.110476 9.999e-05 0.00890887
7 7 0.0833183 9.999e-05 0.154974
8 8 0.386051 9.999e-05 0.199325
9 9 0.602184 9.999e-05 0.199838
ITEM: TIMESTEP
2050
ITEM: NUMBER OF ATOMS
9
ITEM: BOX BOUNDS mm mm mm
-0.586157 50
-0.005 50
-0.005 50
ITEM: ATOMS id type xs ys zs
1 1 0.0115873 9.999e-05 9.999e-05
2 2 0.0157021 9.999e-05 0.201995
3 3 5.8912e-05 9.999e-05 0.181157
4 4 0.00911549 9.999e-05 0.185936
5 5 0.040158 9.999e-05 0.20401
6 6 0.106673 9.999e-05 0.0136783
7 7 0.0785201 9.999e-05 0.156458
8 8 0.386229 9.999e-05 0.20427
9 9 0.602329 9.999e-05 0.20482
ITEM: TIMESTEP
2100
ITEM: NUMBER OF ATOMS
9
ITEM: BOX BOUNDS mm mm mm
-0.613087 50
-0.005 50
-0.005 50
ITEM: ATOMS id type xs ys zs
1 1 0.0121132 9.999e-05 9.999e-05
2 2 0.0161401 9.999e-05 0.206909
3 3 -7.41232e-05 9.999e-05 0.185438
4 4 0.00905285 9.999e-05 0.190329
5 5 0.0406274 9.999e-05 0.208973
6 6 0.100804 9.999e-05 0.0181629
7 7 0.0735525 9.999e-05 0.157761
8 8 0.386337 9.999e-05 0.209213
9 9 0.60243 9.999e-05 0.2098
ITEM: TIMESTEP
2150
ITEM: NUMBER OF ATOMS
9
ITEM: BOX BOUNDS mm mm mm
-0.647418 50
-0.005 50
-0.005 50
ITEM: ATOMS id type xs ys zs
1 1 0.0127828 9.999e-05 9.999e-05
2 2 0.0167212 9.999e-05 0.211823
3 3 -6.07579e-05 9.999e-05 0.189717
4 4 0.00913512 9.999e-05 0.19472
5 5 0.0412365 9.999e-05 0.213936
6 6 0.0928698 9.999e-05 0.0221937
7 7 0.0686546 9.999e-05 0.15888
8 8 0.38653 9.999e-05 0.214154
9 9 0.602587 9.999e-05 0.21478
ITEM: TIMESTEP
2200
ITEM: NUMBER OF ATOMS
9
ITEM: BOX BOUNDS mm mm mm
-0.684436 50
-0.005 50
-0.005 50
ITEM: ATOMS id type xs ys zs
1 1 0.0135039 9.999e-05 9.999e-05
2 2 0.0173537 9.999e-05 0.216738
3 3 5.70162e-06 9.999e-05 0.193994
4 4 0.00926985 9.999e-05 0.19911
5 5 0.0418955 9.999e-05 0.218898
6 6 0.0824171 9.999e-05 0.0255022
7 7 0.0637468 9.999e-05 0.15981
8 8 0.386751 9.999e-05 0.219092
9 9 0.602762 9.999e-05 0.219759
ITEM: TIMESTEP
2250
ITEM: NUMBER OF ATOMS
9
ITEM: BOX BOUNDS mm mm mm
-0.720776 50
-0.005 50
-0.005 50
ITEM: ATOMS id type xs ys zs
1 1 0.0142107 9.999e-05 9.999e-05
2 2 0.0179721 9.999e-05 0.221652
3 3 5.87784e-05 9.999e-05 0.19827
4 4 0.00939115 9.999e-05 0.203498
5 5 0.0425407 9.999e-05 0.223861
6 6 0.0687373 9.999e-05 0.0275924
7 7 0.058773 9.999e-05 0.160548
8 8 0.38696 9.999e-05 0.224028
9 9 0.602929 9.999e-05 0.224737
ITEM: TIMESTEP
2300
ITEM: NUMBER OF ATOMS
9
ITEM: BOX BOUNDS mm mm mm
-0.754419 50
-0.005 50
-0.005 50
ITEM: ATOMS id type xs ys zs
1 1 0.0148641 9.999e-05 9.999e-05
2 2 0.0185375 9.999e-05 0.226566
3 3 5.87449e-05 9.999e-05 0.202545
4 4 0.00945969 9.999e-05 0.207885
5 5 0.0431341 9.999e-05 0.228824
6 6 0.0505074 9.999e-05 0.0273031
7 7 0.0537014 9.999e-05 0.161088
8 8 0.387132 9.999e-05 0.228962
9 9 0.603072 9.999e-05 0.229714
ITEM: TIMESTEP
2350
ITEM: NUMBER OF ATOMS
9
ITEM: BOX BOUNDS mm mm mm
-0.788058 50
-0.005 50
-0.005 50
ITEM: ATOMS id type xs ys zs
1 1 0.0155166 9.999e-05 9.999e-05
2 2 0.019102 9.999e-05 0.23148
3 3 5.87113e-05 9.999e-05 0.206819
4 4 0.0095281 9.999e-05 0.21227
5 5 0.0437266 9.999e-05 0.233786
6 6 0.0244858 9.999e-05 0.0200968
7 7 0.048588 9.999e-05 0.161426
8 8 0.3873 9.999e-05 0.233894
9 9 0.603213 9.999e-05 0.23469
ITEM: TIMESTEP
2400
ITEM: NUMBER OF ATOMS
9
ITEM: BOX BOUNDS mm mm mm
-0.821692 50
-0.005 50
-0.880009 50
ITEM: ATOMS id type xs ys zs
1 1 0.0161681 9.999e-05 0.0172958
2 2 0.0196657 9.999e-05 0.249526
3 3 5.86776e-05 9.999e-05 0.224659
4 4 0.00959636 9.999e-05 0.230126
5 5 0.0443183 9.999e-05 0.25184
6 6 0.0221579 9.999e-05 -0.00118153
7 7 0.0434393 9.999e-05 0.175979
8 8 0.387464 9.999e-05 0.251913
9 9 0.603351 9.999e-05 0.252742
ITEM: TIMESTEP
2450
ITEM: NUMBER OF ATOMS
9
ITEM: BOX BOUNDS mm mm mm
-0.855322 50
-0.005 50
-1.38577 50
ITEM: ATOMS id type xs ys zs
1 1 0.0168187 9.999e-05 0.026968
2 2 0.0202286 9.999e-05 0.261694
3 3 5.86439e-05 9.999e-05 0.236447
4 4 0.00966448 9.999e-05 0.241968
5 5 0.0449091 9.999e-05 0.264032
6 6 0.0500793 9.999e-05 -0.00010609
7 7 0.0382621 9.999e-05 0.184015
8 8 0.387624 9.999e-05 0.26407
9 9 0.603487 9.999e-05 0.264937
ITEM: TIMESTEP
2500
ITEM: NUMBER OF ATOMS
9
ITEM: BOX BOUNDS mm mm mm
-0.888947 50
-0.005 50
-1.44924 50
ITEM: ATOMS id type xs ys zs
1 1 0.0174684 9.999e-05 0.0281684
2 2 0.0207906 9.999e-05 0.267381
3 3 5.86101e-05 9.999e-05 0.24154
4 4 0.00973248 9.999e-05 0.247162
5 5 0.045499 9.999e-05 0.269763
6 6 0.0699162 9.999e-05 0.00012933
7 7 0.0330634 9.999e-05 0.184742
8 8 0.387781 9.999e-05 0.269764
9 9 0.603621 9.999e-05 0.270678
ITEM: TIMESTEP
2550
ITEM: NUMBER OF ATOMS
9
ITEM: BOX BOUNDS mm mm mm
-0.923913 50
-0.005 50
-1.36928 50
ITEM: ATOMS id type xs ys zs
1 1 0.018143 9.999e-05 0.0266555
2 2 0.0213777 9.999e-05 0.271024
3 3 8.49821e-05 9.999e-05 0.244515
4 4 0.00982649 9.999e-05 0.250254
5 5 0.0461132 9.999e-05 0.273457
6 6 0.0851593 9.999e-05 0.000144092
7 7 0.0278764 9.999e-05 0.182982
8 8 0.387949 9.999e-05 0.273419
9 9 0.603762 9.999e-05 0.274383
ITEM: TIMESTEP
2600
ITEM: NUMBER OF ATOMS
9
ITEM: BOX BOUNDS mm mm mm
-0.949462 50
-0.005 50
-1.26178 50
ITEM: ATOMS id type xs ys zs
1 1 0.0186354 9.999e-05 0.0246145
2 2 0.0217832 9.999e-05 0.274288
3 3 -7.34064e-05 9.999e-05 0.247095
4 4 0.00973742 9.999e-05 0.252954
5 5 0.0465504 9.999e-05 0.276773
6 6 0.0969623 9.999e-05 0.000941378
7 7 0.0225026 9.999e-05 0.180563
8 8 0.388001 9.999e-05 0.276694
9 9 0.603828 9.999e-05 0.277711
ITEM: TIMESTEP
2650
ITEM: NUMBER OF ATOMS
9
ITEM: BOX BOUNDS mm mm mm
-0.991143 50
-0.005 50
-1.03364 50
ITEM: ATOMS id type xs ys zs
1 1 0.0194376 9.999e-05 0.020254
2 2 0.0224976 9.999e-05 0.275859
3 3 8.48731e-05 9.999e-05 0.247911
4 4 0.00996179 9.999e-05 0.253904
5 5 0.0472886 9.999e-05 0.278402
6 6 0.106454 9.999e-05 0.000177771
7 7 0.0174399 9.999e-05 0.175973
8 8 0.388242 9.999e-05 0.278278
9 9 0.604017 9.999e-05 0.279353
ITEM: TIMESTEP
2700
ITEM: NUMBER OF ATOMS
9
ITEM: BOX BOUNDS mm mm mm
-1.01601 50
-0.005 50
-0.876719 50
ITEM: ATOMS id type xs ys zs
1 1 0.0199156 9.999e-05 0.0172322
2 2 0.022889 9.999e-05 0.278455
3 3 -8.64467e-05 9.999e-05 0.249785
4 4 0.0098597 9.999e-05 0.255905
5 5 0.047712 9.999e-05 0.281053
6 6 0.11344 9.999e-05 0.00132264
7 7 0.0120629 9.999e-05 0.17228
8 8 0.388279 9.999e-05 0.280883
9 9 0.604073 9.999e-05 0.282014
ITEM: TIMESTEP
2750
ITEM: NUMBER OF ATOMS
9
ITEM: BOX BOUNDS mm mm mm
-1.04559 50
-0.005 50
-0.676658 50
ITEM: ATOMS id type xs ys zs
1 1 0.0204834 9.999e-05 0.0133525
2 2 0.02337 9.999e-05 0.280455
3 3 -0.000165375 9.999e-05 0.251032
4 4 0.00984897 9.999e-05 0.257286
5 5 0.0482226 9.999e-05 0.283111
6 6 0.118536 9.999e-05 0.00196412
7 7 0.00679408 9.999e-05 0.167632
8 8 0.388368 9.999e-05 0.282891
9 9 0.604163 9.999e-05 0.284083
ITEM: TIMESTEP
2800
ITEM: NUMBER OF ATOMS
9
ITEM: BOX BOUNDS mm mm mm
-1.07919 50
-0.005 50
-0.437205 50
ITEM: ATOMS id type xs ys zs
1 1 0.0211278 9.999e-05 0.0086683
2 2 0.0239275 9.999e-05 0.28191
3 3 -0.000165238 9.999e-05 0.251705
4 4 0.0099164 9.999e-05 0.258097
5 5 0.0488076 9.999e-05 0.284626
6 6 0.121871 9.999e-05 0.00204633
7 7 0.00163035 9.999e-05 0.162065
8 8 0.388503 9.999e-05 0.284354
9 9 0.604283 9.999e-05 0.285609
ITEM: TIMESTEP
2850
ITEM: NUMBER OF ATOMS
9
ITEM: BOX BOUNDS mm mm mm
-1.17851 50
-0.005 50
-0.190028 50
ITEM: ATOMS id type xs ys zs
1 1 0.0230274 9.999e-05 0.00378617
2 2 0.0257368 9.999e-05 0.283269
3 3 0.00111917 9.999e-05 0.252269
4 4 0.011255 9.999e-05 0.258802
5 5 0.0506125 9.999e-05 0.286046
6 6 0.12458 9.999e-05 0.00209202
7 7 -0.00220883 9.999e-05 0.156085
8 8 0.389419 9.999e-05 0.285719
9 9 0.604908 9.999e-05 0.287039
ITEM: TIMESTEP
2900
ITEM: NUMBER OF ATOMS
9
ITEM: BOX BOUNDS mm mm mm
-1.47302 50
-0.005 50
-0.005 50
ITEM: ATOMS id type xs ys zs
1 1 0.0286172 9.999e-05 9.999e-05
2 2 0.0312267 9.999e-05 0.28553
3 3 0.00618173 9.999e-05 0.253765
4 4 0.0163328 9.999e-05 0.260432
5 5 0.0560037 9.999e-05 0.288366
6 6 0.128878 9.999e-05 0.00340729
7 7 -0.0021797 9.999e-05 0.150868
8 8 0.39264 9.999e-05 0.287981
9 9 0.607024 9.999e-05 0.289367
ITEM: TIMESTEP
2950
ITEM: NUMBER OF ATOMS
9
ITEM: BOX BOUNDS mm mm mm
-1.75943 50
-0.005 50
-0.005 50
ITEM: ATOMS id type xs ys zs
1 1 0.0339925 9.999e-05 9.999e-05
2 2 0.0365037 9.999e-05 0.290444
3 3 0.0110322 9.999e-05 0.258028
4 4 0.0211999 9.999e-05 0.264805
5 5 0.0611869 9.999e-05 0.293327
6 6 0.131268 9.999e-05 0.00835733
7 7 -0.00225981 9.999e-05 0.14854
8 8 0.395727 9.999e-05 0.292884
9 9 0.609053 9.999e-05 0.294331
ITEM: TIMESTEP
3000
ITEM: NUMBER OF ATOMS
9
ITEM: BOX BOUNDS mm mm mm
-2.16961 50
-0.005 50
-0.005 50
ITEM: ATOMS id type xs ys zs
1 1 0.0415877 9.999e-05 9.999e-05
2 2 0.0439958 9.999e-05 0.295357
3 3 0.018164 9.999e-05 0.26229
4 4 0.028324 9.999e-05 0.269176
5 5 0.068528 9.999e-05 0.298288
6 6 0.133905 9.999e-05 0.0131536
7 7 9.58412e-05 9.999e-05 0.145976
8 8 0.400204 9.999e-05 0.297784
9 9 0.611981 9.999e-05 0.299295
ITEM: TIMESTEP
3050
ITEM: NUMBER OF ATOMS
9
ITEM: BOX BOUNDS mm mm mm
-2.39769 50
-0.005 50
-0.005 50
ITEM: ATOMS id type xs ys zs
1 1 0.0457594 9.999e-05 9.999e-05
2 2 0.0480741 9.999e-05 0.30027
3 3 0.0217967 9.999e-05 0.266552
4 4 0.0319844 9.999e-05 0.273547
5 5 0.0725423 9.999e-05 0.30325
6 6 0.131591 9.999e-05 0.0176763
7 7 -0.000985476 9.999e-05 0.143177
8 8 0.402538 9.999e-05 0.302682
9 9 0.613522 9.999e-05 0.304257
ITEM: TIMESTEP
3100
ITEM: NUMBER OF ATOMS
9
ITEM: BOX BOUNDS mm mm mm
-2.6848 50
-0.005 50
-0.005 50
ITEM: ATOMS id type xs ys zs
1 1 0.0509597 9.999e-05 9.999e-05
2 2 0.0531794 9.999e-05 0.305184
3 3 0.0264902 9.999e-05 0.270812
4 4 0.0366939 9.999e-05 0.277917
5 5 0.0775568 9.999e-05 0.308211
6 6 0.128157 9.999e-05 0.0217581
7 7 -0.000857931 9.999e-05 0.140142
8 8 0.405516 9.999e-05 0.307577
9 9 0.615479 9.999e-05 0.309219
ITEM: TIMESTEP
3150
ITEM: NUMBER OF ATOMS
9
ITEM: BOX BOUNDS mm mm mm
-2.98919 50
-0.005 50
-0.005 50
ITEM: ATOMS id type xs ys zs
1 1 0.0564113 9.999e-05 9.999e-05
2 2 0.0585363 9.999e-05 0.310097
3 3 0.0314488 9.999e-05 0.275072
4 4 0.0416649 9.999e-05 0.282286
5 5 0.082816 9.999e-05 0.313172
6 6 0.122582 9.999e-05 0.0251341
7 7 -0.000319053 9.999e-05 0.136873
8 8 0.408653 9.999e-05 0.31247
9 9 0.617538 9.999e-05 0.314179
ITEM: TIMESTEP
3200
ITEM: NUMBER OF ATOMS
9
ITEM: BOX BOUNDS mm mm mm
-3.28206 50
-0.005 50
-0.005 50
ITEM: ATOMS id type xs ys zs
1 1 0.0615979 9.999e-05 9.999e-05
2 2 0.0636297 9.999e-05 0.31501
3 3 0.0361424 9.999e-05 0.279332
4 4 0.046373 9.999e-05 0.286654
5 5 0.087818 9.999e-05 0.318133
6 6 0.113808 9.999e-05 0.0273154
7 7 9.38402e-05 9.999e-05 0.133371
8 8 0.411623 9.999e-05 0.31736
9 9 0.61949 9.999e-05 0.319139
ITEM: TIMESTEP
3250
ITEM: NUMBER OF ATOMS
9
ITEM: BOX BOUNDS mm mm mm
-3.54733 50
-0.005 50
-0.005 50
ITEM: ATOMS id type xs ys zs
1 1 0.0662466 9.999e-05 9.999e-05
2 2 0.0681872 9.999e-05 0.319923
3 3 0.0402903 9.999e-05 0.28359
4 4 0.0505404 9.999e-05 0.291022
5 5 0.0922976 9.999e-05 0.323094
6 6 0.100396 9.999e-05 0.027161
7 7 9.33753e-05 9.999e-05 0.129637
8 8 0.414257 9.999e-05 0.322248
9 9 0.621223 9.999e-05 0.324097
ITEM: TIMESTEP
3300
ITEM: NUMBER OF ATOMS
9
ITEM: BOX BOUNDS mm mm mm
-3.80633 50
-0.005 50
-0.005 50
ITEM: ATOMS id type xs ys zs
1 1 0.0707413 9.999e-05 9.999e-05
2 2 0.0725918 9.999e-05 0.324836
3 3 0.044286 9.999e-05 0.287849
4 4 0.0545567 9.999e-05 0.295389
5 5 0.0966278 9.999e-05 0.328054
6 6 0.079666 9.999e-05 0.0202503
7 7 9.29259e-05 9.999e-05 0.125674
8 8 0.416794 9.999e-05 0.327134
9 9 0.622893 9.999e-05 0.329054
ITEM: TIMESTEP
3350
ITEM: NUMBER OF ATOMS
9
ITEM: BOX BOUNDS mm mm mm
-4.05849 50
-0.005 50
-0.934095 50
ITEM: ATOMS id type xs ys zs
1 1 0.0750758 9.999e-05 0.0183393
2 2 0.0768374 9.999e-05 0.341976
3 3 0.048123 9.999e-05 0.305019
4 4 0.0584154 9.999e-05 0.312528
5 5 0.100803 9.999e-05 0.345182
6 6 0.0802229 9.999e-05 9.81661e-05
7 7 9.24924e-05 9.999e-05 0.13751
8 8 0.419231 9.999e-05 0.344202
9 9 0.624498 9.999e-05 0.346159
ITEM: TIMESTEP
3400
ITEM: NUMBER OF ATOMS
9
ITEM: BOX BOUNDS mm mm mm
-4.30322 50
-0.005 50
-1.40285 50
ITEM: ATOMS id type xs ys zs
1 1 0.0792443 9.999e-05 0.0272912
2 2 0.080918 9.999e-05 0.352756
3 3 0.0517949 9.999e-05 0.315498
4 4 0.0621102 9.999e-05 0.323044
5 5 0.104817 9.999e-05 0.355979
6 6 0.109999 9.999e-05 9.72709e-05
7 7 9.20756e-05 9.999e-05 0.141085
8 8 0.421563 9.999e-05 0.354931
9 9 0.626035 9.999e-05 0.356942
ITEM: TIMESTEP
3450
ITEM: NUMBER OF ATOMS
9
ITEM: BOX BOUNDS mm mm mm
-4.53997 50
-0.005 50
-1.46153 50
ITEM: ATOMS id type xs ys zs
1 1 0.0832411 9.999e-05 0.0284005
2 2 0.0848278 9.999e-05 0.358268